

 Parallel Execution: Process Information
 ==============================================================================
 Rank   Node Name                              NodeID   MyNodeRank  NodeMaster
    0   u-0-11.local                              0          0          0
    1   u-0-11.local                              0          1         -1
    2   u-0-11.local                              1          0          1
    3   u-0-11.local                              1          1         -1
    4   u-0-11.local                              2          0          2
    5   u-0-11.local                              2          1         -1
    6   u-0-11.local                              3          0          3
    7   u-0-11.local                              3          1         -1
 ==============================================================================


May use up to 31200MB of RAM as shared memory on node 0
May use up to 31250MB of RAM as shared memory on node 2
May use up to 31250MB of RAM as shared memory on node 3
May use up to 31250MB of RAM as shared memory on node 1

 *******************************************************************************
 *                                                                             *
 *  --------------------------------                                           *
 *   Amsterdam Modeling Suite (AMS)              2025.104                      *
 *  --------------------------------                                           *
 *                                               r250815 2025-08-15 94ea0506   *
 *                                                                             *
 *                                                                             *
 *                              =================                              *
 *                              |               |                              *
 *                              |     A M S     |                              *
 *                              |               |                              *
 *                              =================                              *
 *                                                                             *
 *                                                                             *
 *   Online information and documentation:  https://www.scm.com/support/       *
 *   E-mail:  support@scm.com   info@scm.com                                   *
 *                                                                             *
 *   Scientific publications using AMS results must be properly referenced     *
 *   See the User Manuals (or the web site) for recommended citations          *
 *   The terms and conditions of the End User License Agreement apply to       *
 *   the use of AMS, https://www.scm.com/license-terms/                        *
 *                                                                             *
 **********************  x86_64_linux_intel / intelmpi  ************************
 
 Licensed to: Dr. Val?rie Vallet / Laboratoire PhLAM UMR 8523 / Villeneuve d'Ascq Cedex / FRANCE 2024-12-20 16:14:47
 SCM User ID: u10325
  
 AMS 2025.104  RunTime: Nov13-2025 11:52:38  ShM Nodes: 4  Procs: 8

 AMS jobname: terpy.pbe0-d3bj-gp.x2c-so
 AMS jobid  : 349684662

 Start   directory: /state/partition2/vallet/1073342.phlam-s-sakura/
 Results directory: /home/vallet/ANL/ANL-UVI-structures-Emily/terpy/X2C-SO/terpy.pbe0-d3bj-gp.x2c-so.results/
 Scratch directory: /state/partition2/vallet/1073342.phlam-s-sakura/amstmp_terpy.pbe0-d3bj-gp.x2c-so_kid0.349684662/


 Communication costs MPI_COMM_WORLD:     11.952 usec per message,   0.0193 usec per 8-byte item
 Communication costs for intra-node:      0.405 usec per message,   0.0028 usec per 8-byte item

 RNG seed: 729019131 2084546880 -1217842106 -1174050760 11665221 -1159338512 -1930018014 1068184632



                      ************************************************************************
                      *  ADF 2025.104  RunTime: Nov13-2025 11:52:40  ShM Nodes: 4  Procs: 8  *
                      ************************************************************************
  

       ****************************
       * SINGLE POINT CALCULATION *
       ****************************
 
--------
Geometry
--------
Formula: C15H11N3
Atoms
  Index Symbol   x (angstrom)   y (angstrom)   z (angstrom)
      1      N     0.12442300    -0.00000000    -0.12625600
      2      C     0.15852300    -0.00000000     1.20113400
      3      C     1.33450600    -0.00000000     1.93710200
      4      C     2.53605600    -0.00000000     1.24611600
      5      C     2.51351100    -0.00000000    -0.13738600
      6      C     1.28315000    -0.00000000    -0.79109700
      7      H    -0.80313500    -0.00000000     1.70686500
      8      H     1.30283800    -0.00000000     3.01964500
      9      H     3.48054100    -0.00000000     1.77829800
     10      H     3.42660100     0.00000000    -0.71683500
     11      C     1.21039400    -0.00000000    -2.27361300
     12      C    -0.01818800    -0.00000000    -2.93105800
     13      C    -0.02548700    -0.00000000    -4.31471500
     14      C     1.17644500    -0.00000000    -5.00022200
     15      C     2.36010000     0.00000000    -4.26496200
     16      N     2.36644500     0.00000000    -2.93373200
     17      H    -0.93496800    -0.00000000    -2.35818600
     18      H    -0.96433000    -0.00000000    -4.85675600
     19      H     1.21417700    -0.00000000    -6.08061300
     20      C     3.68037400     0.00000000    -4.94321100
     21      C     4.86168500     0.00000000    -4.20454300
     22      C     6.07110500     0.00000000    -4.87676900
     23      C     6.06874200     0.00000000    -6.26283500
     24      C     4.84338300     0.00000000    -6.91328300
     25      N     3.67678000     0.00000000    -6.27911900
     26      H     4.81641200     0.00000000    -3.12405900
     27      H     7.00423100     0.00000000    -4.32491200
     28      H     6.99041700     0.00000000    -6.83153200
     29      H     4.80053000     0.00000000    -7.99896800
 
Total System Charge             0.00000
Bonding info available!
 
 
----------------
ADF Engine Input
----------------
 
 Basis
 Type TZ2P
 Core None
 End
 XC
 Hybrid PBE0
 DISPERSION Grimme3 BJDAMP
 End
 Relativity
 Level Spin-Orbit
 Formalism X2C
 SpinOrbitMagnetization NonCollinear
 End
 NumericalQuality Good
 

 Title: *** (NO TITLE) ***

 *** adf ***



 ===========================
 A T T A C H E D   F I L E S
 ===========================
  



 ===============================
 M O D E L   P A R A M E T E R S
 ===============================
  
 DENSITY FUNCTIONAL POTENTIAL (scf)
    Hybrid:                            PBE0                                    == Not Default ==

 SPIN  (restricted / unrestr.)
    Molecule:                          Restricted                               
    Fragments:                         Restricted                               

 OTHER ASPECTS
    Relativistic Corrections:          Spin-Orbit (X2C,MAPA)                   == Not Default ==

    Nuclear Charge Density Model:      Point Charge Nuclei                      
    Core Treatment:                    Frozen Orbital(s)                        

    Hyperfine or Zeeman Interaction:   ---                                      

 Settings for Grimme D3 dispersion correction

      damping                        BJ
      s6                          1.000
      s8                          1.218
      a1                          0.414
      a2                          4.859

 Other (technical) parameters

      alpha                      14.000
      version                         4
 
 WARNING: Atom coordinates do not satisfy full symmetry (probably due to orientation).


 Fragment File(s)
 ----------------
 N:
         file : /home/vallet/ANL/ANL-UVI-structures-Emily/terpy/X2C-SO/terpy.pbe0-d3bj-gp.x2c-so.results/t21.6D6B55E2.N
         jobid: 0
         title: Nitrogen (TZ2P)
 C:
         file : /home/vallet/ANL/ANL-UVI-structures-Emily/terpy/X2C-SO/terpy.pbe0-d3bj-gp.x2c-so.results/t21.9CB274C.C
         jobid: 0
         title: Carbon (TZ2P)
 H:
         file : /home/vallet/ANL/ANL-UVI-structures-Emily/terpy/X2C-SO/terpy.pbe0-d3bj-gp.x2c-so.results/t21.316B2D2C.H
         jobid: 0
         title: Hydrogen (TZ2P)



 ===============
 G E O M E T R Y  ***  Planar Molecule  ***
 ===============
  

 ATOMS
 =====                            X Y Z                    CHARGE
                                (Angstrom)             Nucl     +Core       At.Mass
                       --------------------------    ----------------       -------
    1  N               0.1244    0.0000   -0.1263      7.00      7.00       14.0031
    2  C               0.1585    0.0000    1.2011      6.00      6.00       12.0000
    3  C               1.3345    0.0000    1.9371      6.00      6.00       12.0000
    4  C               2.5361    0.0000    1.2461      6.00      6.00       12.0000
    5  C               2.5135    0.0000   -0.1374      6.00      6.00       12.0000
    6  C               1.2832    0.0000   -0.7911      6.00      6.00       12.0000
    7  H              -0.8031    0.0000    1.7069      1.00      1.00        1.0078
    8  H               1.3028    0.0000    3.0196      1.00      1.00        1.0078
    9  H               3.4805    0.0000    1.7783      1.00      1.00        1.0078
   10  H               3.4266    0.0000   -0.7168      1.00      1.00        1.0078
   11  C               1.2104    0.0000   -2.2736      6.00      6.00       12.0000
   12  C              -0.0182   -0.0000   -2.9311      6.00      6.00       12.0000
   13  C              -0.0255   -0.0000   -4.3147      6.00      6.00       12.0000
   14  C               1.1764    0.0000   -5.0002      6.00      6.00       12.0000
   15  C               2.3601    0.0000   -4.2650      6.00      6.00       12.0000
   16  N               2.3664    0.0000   -2.9337      7.00      7.00       14.0031
   17  H              -0.9350   -0.0000   -2.3582      1.00      1.00        1.0078
   18  H              -0.9643   -0.0000   -4.8568      1.00      1.00        1.0078
   19  H               1.2142    0.0000   -6.0806      1.00      1.00        1.0078
   20  C               3.6804    0.0000   -4.9432      6.00      6.00       12.0000
   21  C               4.8617    0.0000   -4.2045      6.00      6.00       12.0000
   22  C               6.0711    0.0000   -4.8768      6.00      6.00       12.0000
   23  C               6.0687    0.0000   -6.2628      6.00      6.00       12.0000
   24  C               4.8434    0.0000   -6.9133      6.00      6.00       12.0000
   25  N               3.6768    0.0000   -6.2791      7.00      7.00       14.0031
   26  H               4.8164    0.0000   -3.1241      1.00      1.00        1.0078
   27  H               7.0042    0.0000   -4.3249      1.00      1.00        1.0078
   28  H               6.9904    0.0000   -6.8315      1.00      1.00        1.0078
   29  H               4.8005    0.0000   -7.9990      1.00      1.00        1.0078


 FRAGMENTS
 =========                                     Atoms in this Fragment     Cart. coord.s (Angstrom)
                                               -------------------------------------------------------
    1  N                                                 1  N            0.1244    0.0000   -0.1263
    2  N                                                16  N            2.3664    0.0000   -2.9337
    3  N                                                25  N            3.6768    0.0000   -6.2791
    4  C                                                 2  C            0.1585    0.0000    1.2011
    5  C                                                 3  C            1.3345    0.0000    1.9371
    6  C                                                 4  C            2.5361    0.0000    1.2461
    7  C                                                 5  C            2.5135    0.0000   -0.1374
    8  C                                                 6  C            1.2832    0.0000   -0.7911
    9  C                                                11  C            1.2104    0.0000   -2.2736
   10  C                                                12  C           -0.0182   -0.0000   -2.9311
   11  C                                                13  C           -0.0255   -0.0000   -4.3147
   12  C                                                14  C            1.1764    0.0000   -5.0002
   13  C                                                15  C            2.3601    0.0000   -4.2650
   14  C                                                20  C            3.6804    0.0000   -4.9432
   15  C                                                21  C            4.8617    0.0000   -4.2045
   16  C                                                22  C            6.0711    0.0000   -4.8768
   17  C                                                23  C            6.0687    0.0000   -6.2628
   18  C                                                24  C            4.8434    0.0000   -6.9133
   19  H                                                 7  H           -0.8031    0.0000    1.7069
   20  H                                                 8  H            1.3028    0.0000    3.0196
   21  H                                                 9  H            3.4805    0.0000    1.7783
   22  H                                                10  H            3.4266    0.0000   -0.7168
   23  H                                                17  H           -0.9350   -0.0000   -2.3582
   24  H                                                18  H           -0.9643   -0.0000   -4.8568
   25  H                                                19  H            1.2142    0.0000   -6.0806
   26  H                                                26  H            4.8164    0.0000   -3.1241
   27  H                                                27  H            7.0042    0.0000   -4.3249
   28  H                                                28  H            6.9904    0.0000   -6.8315
   29  H                                                29  H            4.8005    0.0000   -7.9990



 =====================================
 S Y M M E T R Y ,   E L E C T R O N S
 =====================================
  
 Symmetry: NOSYM

 Double Group Irreducible Representations (spinor symmetry)
 -----------------------------------------------------------
 A1/2

 Symmetry is NOT used when fitting density


 Configuration of Valence Electrons
 ==================================
 ( determined in the SCF procedure )

 Total:   122

 Net Charge: 0 (Nuclei minus Electrons)

 Aufbau principle for MO occupations will be applied through SCF cycle no.     150
 Thereafter, the program will assign electrons to MOs that are spatially
 similar to the occupied MOs in a "reference" cycle ("KeepOrbitals").
 The reference cycle is always the PREVIOUS cycle: it will evolve with
 the SCF procedure.
 ***************************************************************************************************



                                      ****************************************
                                      *  B U I L D : (Fragments, Functions)  *
                                      ****************************************
  



 =======
 S F O s  ***  (Symmetrized Fragment Orbitals)  ***
 =======
  
 SFOs are linear combinations of (valence) Fragment Orbitals (FOs), such that the SFOs transform as the
 irreducible representations of the (molecular) symmetry group. Each SFO is therefore characterized by
 an irrep of the molecule and by a few (or only one) generating FOs.
 The SFOs constitute a symmetry-adapted basis for the Fock matrix. The MO eigenvector coefficients in
 this basis provide a direct interpretation of the MOs in terms of Frontier Orbital Theory.

 The SFOs are combined with auxiliary Core Functions (CFs) to ensure orthogonalization on the (frozen)
 Core Orbitals (COs). The Core-orthogonalized SFOs (CSFOs) constitute the true Fock basis.

 The FOs, and hence also the (C)SFOs are combinations of the elementary basis functions (BAS). The basis
 functions that participate in the description of the SFOs depend on the irrep. The indices of the
 involved functions are printed below for each irrep.
 (The complete list of primitive basis functions is printed in another section)

 Total nr. of (C)SFOs (summation over all irreps) :   589

 NOTE: a (C)SFO that is defined as a combination of more than one FO is usually NOT normalized.

 NOTE: the (C)SFOs are single group symmetry adapted orbitals.



                                       === A ===
 Nr. of SFOs :  589
 Cartesian basis functions that participate in this irrep (total number =   672) :
      1     2     3     4     5     6     9    12     7    10
     13     8    11    14    15    16    17    18    19    20
     21    22    23    24    25    26    27    28    29    30
     31    32    33    34    35    36    39    42    37    40
     43    38    41    44    45    46    47    48    49    50
     51    52    53    54    55    56    57    58    59    60
     61    62    63    64    65    66    69    72    67    70
     73    68    71    74    75    76    77    78    79    80
     81    82    83    84    85    86    87    88    89    90
     91    92    93    94    95    96    99   102    97   100
    103    98   101   104   105   106   107   108   109   110
    111   112   113   114   115   116   117   118   119   120
    121   122   123   124   125   126   129   132   127   130
    133   128   131   134   135   136   137   138   139   140
    141   142   143   144   145   146   147   148   149   150
    151   152   153   154   155   156   159   162   157   160
    163   158   161   164   165   166   167   168   169   170
    171   172   173   174   175   176   177   178   179   180
    181   182   183   184   185   186   189   192   187   190
    193   188   191   194   195   196   197   198   199   200
    201   202   203   204   205   206   207   208   209   210
    211   212   213   214   215   216   219   222   217   220
    223   218   221   224   225   226   227   228   229   230
    231   232   233   234   235   236   237   238   239   240
    241   242   243   244   245   246   249   252   247   250
    253   248   251   254   255   256   257   258   259   260
    261   262   263   264   265   266   267   268   269   270
    271   272   273   274   275   276   279   282   277   280
    283   278   281   284   285   286   287   288   289   290
    291   292   293   294   295   296   297   298   299   300
    301   302   303   304   305   306   309   312   307   310
    313   308   311   314   315   316   317   318   319   320
    321   322   323   324   325   326   327   328   329   330
    331   332   333   334   335   336   339   342   337   340
    343   338   341   344   345   346   347   348   349   350
    351   352   353   354   355   356   357   358   359   360
    361   362   363   364   365   366   369   372   367   370
    373   368   371   374   375   376   377   378   379   380
    381   382   383   384   385   386   387   388   389   390
    391   392   393   394   395   396   399   402   397   400
    403   398   401   404   405   406   407   408   409   410
    411   412   413   414   415   416   417   418   419   420
    421   422   423   424   425   426   429   432   427   430
    433   428   431   434   435   436   437   438   439   440
    441   442   443   444   445   446   447   448   449   450
    451   452   453   454   455   456   459   462   457   460
    463   458   461   464   465   466   467   468   469   470
    471   472   473   474   475   476   477   478   479   480
    481   482   483   484   485   486   489   492   487   490
    493   488   491   494   495   496   497   498   499   500
    501   502   503   504   505   506   507   508   509   510
    511   512   513   514   515   516   519   522   517   520
    523   518   521   524   525   526   527   528   529   530
    531   532   533   534   535   536   537   538   539   540
    541   542   543   544   545   546   547   548   549   550
    551   552   553   554   555   556   557   558   559   560
    561   562   563   564   565   566   567   568   569   570
    571   572   573   574   575   576   577   578   579   580
    581   582   583   584   585   586   587   588   589   590
    591   592   593   594   595   596   597   598   599   600
    601   602   603   604   605   606   607   608   609   610
    611   612   613   614   615   616   617   618   619   620
    621   622   623   624   625   626   627   628   629   630
    631   632   633   634   635   636   637   638   639   640
    641   642   643   644   645   646   647   648   649   650
    651   652   653   654   655   656   657   658   659   660
    661   662   663   664   665   666   667   668   669   670
    671   672

    SFO  (index         Fragment          Generating    Expansion in Fragment Orbitals
  indx  incl.CFs)   Occup   Orb.Energy   FragmentType  Coeff.   Orbital     on Fragment
 --------------------------------------------------------------------------------------
     1       1      2.000     -14.564 au  N             1.00      1 S               1
                        (    -396.299 eV)
     2       2      2.000      -0.781 au  N             1.00      2 S               1
                        (     -21.259 eV)
     3       3       --         0.567 au  N             1.00      3 S               1
                        (      15.427 eV)
     4       4       --         7.036 au  N             1.00      4 S               1
                        (     191.468 eV)
     5       5       --        64.014 au  N             1.00      5 S               1
                        (    1741.899 eV)
     6       6      1.000      -0.270 au  N             1.00      1 P:x             1
                        (      -7.353 eV)
     7       7       --         0.326 au  N             1.00      2 P:x             1
                        (       8.878 eV)
     8       8       --         3.416 au  N             1.00      3 P:x             1
                        (      92.956 eV)
     9       9      1.000      -0.270 au  N             1.00      1 P:y             1
                        (      -7.353 eV)
    10      10       --         0.326 au  N             1.00      2 P:y             1
                        (       8.878 eV)
    11      11       --         3.416 au  N             1.00      3 P:y             1
                        (      92.956 eV)
    12      12      1.000      -0.270 au  N             1.00      1 P:z             1
                        (      -7.353 eV)
    13      13       --         0.326 au  N             1.00      2 P:z             1
                        (       8.878 eV)
    14      14       --         3.416 au  N             1.00      3 P:z             1
                        (      92.956 eV)
    15      15       --         1.308 au  N             1.00      1 D:z2            1
                        (      35.586 eV)
    16      16       --         1.308 au  N             1.00      1 D:x2-y2         1
                        (      35.586 eV)
    17      17       --         1.308 au  N             1.00      1 D:xy            1
                        (      35.586 eV)
    18      18       --         1.308 au  N             1.00      1 D:xz            1
                        (      35.586 eV)
    19      19       --         1.308 au  N             1.00      1 D:yz            1
                        (      35.586 eV)
    20      20       --         4.100 au  N             1.00      1 F:z3            1
                        (     111.558 eV)
    21      21       --         4.100 au  N             1.00      1 F:z             1
                        (     111.558 eV)
    22      22       --         4.100 au  N             1.00      1 F:xyz           1
                        (     111.558 eV)
    23      23       --         4.100 au  N             1.00      1 F:z2x           1
                        (     111.558 eV)
    24      24       --         4.100 au  N             1.00      1 F:z2y           1
                        (     111.558 eV)
    25      25       --         4.100 au  N             1.00      1 F:x             1
                        (     111.558 eV)
    26      26       --         4.100 au  N             1.00      1 F:y             1
                        (     111.558 eV)
    27      27      2.000     -14.564 au  N             1.00      1 S               2
                        (    -396.299 eV)
    28      28      2.000      -0.781 au  N             1.00      2 S               2
                        (     -21.259 eV)
    29      29       --         0.567 au  N             1.00      3 S               2
                        (      15.427 eV)
    30      30       --         7.036 au  N             1.00      4 S               2
                        (     191.468 eV)
    31      31       --        64.014 au  N             1.00      5 S               2
                        (    1741.899 eV)
    32      32      1.000      -0.270 au  N             1.00      1 P:x             2
                        (      -7.353 eV)
    33      33       --         0.326 au  N             1.00      2 P:x             2
                        (       8.878 eV)
    34      34       --         3.416 au  N             1.00      3 P:x             2
                        (      92.956 eV)
    35      35      1.000      -0.270 au  N             1.00      1 P:y             2
                        (      -7.353 eV)
    36      36       --         0.326 au  N             1.00      2 P:y             2
                        (       8.878 eV)
    37      37       --         3.416 au  N             1.00      3 P:y             2
                        (      92.956 eV)
    38      38      1.000      -0.270 au  N             1.00      1 P:z             2
                        (      -7.353 eV)
    39      39       --         0.326 au  N             1.00      2 P:z             2
                        (       8.878 eV)
    40      40       --         3.416 au  N             1.00      3 P:z             2
                        (      92.956 eV)
    41      41       --         1.308 au  N             1.00      1 D:z2            2
                        (      35.586 eV)
    42      42       --         1.308 au  N             1.00      1 D:x2-y2         2
                        (      35.586 eV)
    43      43       --         1.308 au  N             1.00      1 D:xy            2
                        (      35.586 eV)
    44      44       --         1.308 au  N             1.00      1 D:xz            2
                        (      35.586 eV)
    45      45       --         1.308 au  N             1.00      1 D:yz            2
                        (      35.586 eV)
    46      46       --         4.100 au  N             1.00      1 F:z3            2
                        (     111.558 eV)
    47      47       --         4.100 au  N             1.00      1 F:z             2
                        (     111.558 eV)
    48      48       --         4.100 au  N             1.00      1 F:xyz           2
                        (     111.558 eV)
    49      49       --         4.100 au  N             1.00      1 F:z2x           2
                        (     111.558 eV)
    50      50       --         4.100 au  N             1.00      1 F:z2y           2
                        (     111.558 eV)
    51      51       --         4.100 au  N             1.00      1 F:x             2
                        (     111.558 eV)
    52      52       --         4.100 au  N             1.00      1 F:y             2
                        (     111.558 eV)
    53      53      2.000     -14.564 au  N             1.00      1 S               3
                        (    -396.299 eV)
    54      54      2.000      -0.781 au  N             1.00      2 S               3
                        (     -21.259 eV)
    55      55       --         0.567 au  N             1.00      3 S               3
                        (      15.427 eV)
    56      56       --         7.036 au  N             1.00      4 S               3
                        (     191.468 eV)
    57      57       --        64.014 au  N             1.00      5 S               3
                        (    1741.899 eV)
    58      58      1.000      -0.270 au  N             1.00      1 P:x             3
                        (      -7.353 eV)
    59      59       --         0.326 au  N             1.00      2 P:x             3
                        (       8.878 eV)
    60      60       --         3.416 au  N             1.00      3 P:x             3
                        (      92.956 eV)
    61      61      1.000      -0.270 au  N             1.00      1 P:y             3
                        (      -7.353 eV)
    62      62       --         0.326 au  N             1.00      2 P:y             3
                        (       8.878 eV)
    63      63       --         3.416 au  N             1.00      3 P:y             3
                        (      92.956 eV)
    64      64      1.000      -0.270 au  N             1.00      1 P:z             3
                        (      -7.353 eV)
    65      65       --         0.326 au  N             1.00      2 P:z             3
                        (       8.878 eV)
    66      66       --         3.416 au  N             1.00      3 P:z             3
                        (      92.956 eV)
    67      67       --         1.308 au  N             1.00      1 D:z2            3
                        (      35.586 eV)
    68      68       --         1.308 au  N             1.00      1 D:x2-y2         3
                        (      35.586 eV)
    69      69       --         1.308 au  N             1.00      1 D:xy            3
                        (      35.586 eV)
    70      70       --         1.308 au  N             1.00      1 D:xz            3
                        (      35.586 eV)
    71      71       --         1.308 au  N             1.00      1 D:yz            3
                        (      35.586 eV)
    72      72       --         4.100 au  N             1.00      1 F:z3            3
                        (     111.558 eV)
    73      73       --         4.100 au  N             1.00      1 F:z             3
                        (     111.558 eV)
    74      74       --         4.100 au  N             1.00      1 F:xyz           3
                        (     111.558 eV)
    75      75       --         4.100 au  N             1.00      1 F:z2x           3
                        (     111.558 eV)
    76      76       --         4.100 au  N             1.00      1 F:z2y           3
                        (     111.558 eV)
    77      77       --         4.100 au  N             1.00      1 F:x             3
                        (     111.558 eV)
    78      78       --         4.100 au  N             1.00      1 F:y             3
                        (     111.558 eV)
    79      79      2.000     -10.410 au  C             1.00      1 S               4
                        (    -283.268 eV)
    80      80      2.000      -0.583 au  C             1.00      2 S               4
                        (     -15.871 eV)
    81      81       --         0.414 au  C             1.00      3 S               4
                        (      11.266 eV)
    82      82       --         5.548 au  C             1.00      4 S               4
                        (     150.975 eV)
    83      83       --        50.362 au  C             1.00      5 S               4
                        (    1370.412 eV)
    84      84      0.667      -0.185 au  C             1.00      1 P:x             4
                        (      -5.048 eV)
    85      85       --         0.203 au  C             1.00      2 P:x             4
                        (       5.519 eV)
    86      86       --         2.124 au  C             1.00      3 P:x             4
                        (      57.805 eV)
    87      87      0.667      -0.185 au  C             1.00      1 P:y             4
                        (      -5.048 eV)
    88      88       --         0.203 au  C             1.00      2 P:y             4
                        (       5.519 eV)
    89      89       --         2.124 au  C             1.00      3 P:y             4
                        (      57.805 eV)
    90      90      0.667      -0.185 au  C             1.00      1 P:z             4
                        (      -5.048 eV)
    91      91       --         0.203 au  C             1.00      2 P:z             4
                        (       5.519 eV)
    92      92       --         2.124 au  C             1.00      3 P:z             4
                        (      57.805 eV)
    93      93       --         1.300 au  C             1.00      1 D:z2            4
                        (      35.364 eV)
    94      94       --         1.300 au  C             1.00      1 D:x2-y2         4
                        (      35.364 eV)
    95      95       --         1.300 au  C             1.00      1 D:xy            4
                        (      35.364 eV)
    96      96       --         1.300 au  C             1.00      1 D:xz            4
                        (      35.364 eV)
    97      97       --         1.300 au  C             1.00      1 D:yz            4
                        (      35.364 eV)
    98      98       --         4.096 au  C             1.00      1 F:z3            4
                        (     111.471 eV)
    99      99       --         4.096 au  C             1.00      1 F:z             4
                        (     111.471 eV)
   100     100       --         4.096 au  C             1.00      1 F:xyz           4
                        (     111.471 eV)
   101     101       --         4.096 au  C             1.00      1 F:z2x           4
                        (     111.471 eV)
   102     102       --         4.096 au  C             1.00      1 F:z2y           4
                        (     111.471 eV)
   103     103       --         4.096 au  C             1.00      1 F:x             4
                        (     111.471 eV)
   104     104       --         4.096 au  C             1.00      1 F:y             4
                        (     111.471 eV)
   105     105      2.000     -10.410 au  C             1.00      1 S               5
                        (    -283.268 eV)
   106     106      2.000      -0.583 au  C             1.00      2 S               5
                        (     -15.871 eV)
   107     107       --         0.414 au  C             1.00      3 S               5
                        (      11.266 eV)
   108     108       --         5.548 au  C             1.00      4 S               5
                        (     150.975 eV)
   109     109       --        50.362 au  C             1.00      5 S               5
                        (    1370.412 eV)
   110     110      0.667      -0.185 au  C             1.00      1 P:x             5
                        (      -5.048 eV)
   111     111       --         0.203 au  C             1.00      2 P:x             5
                        (       5.519 eV)
   112     112       --         2.124 au  C             1.00      3 P:x             5
                        (      57.805 eV)
   113     113      0.667      -0.185 au  C             1.00      1 P:y             5
                        (      -5.048 eV)
   114     114       --         0.203 au  C             1.00      2 P:y             5
                        (       5.519 eV)
   115     115       --         2.124 au  C             1.00      3 P:y             5
                        (      57.805 eV)
   116     116      0.667      -0.185 au  C             1.00      1 P:z             5
                        (      -5.048 eV)
   117     117       --         0.203 au  C             1.00      2 P:z             5
                        (       5.519 eV)
   118     118       --         2.124 au  C             1.00      3 P:z             5
                        (      57.805 eV)
   119     119       --         1.300 au  C             1.00      1 D:z2            5
                        (      35.364 eV)
   120     120       --         1.300 au  C             1.00      1 D:x2-y2         5
                        (      35.364 eV)
   121     121       --         1.300 au  C             1.00      1 D:xy            5
                        (      35.364 eV)
   122     122       --         1.300 au  C             1.00      1 D:xz            5
                        (      35.364 eV)
   123     123       --         1.300 au  C             1.00      1 D:yz            5
                        (      35.364 eV)
   124     124       --         4.096 au  C             1.00      1 F:z3            5
                        (     111.471 eV)
   125     125       --         4.096 au  C             1.00      1 F:z             5
                        (     111.471 eV)
   126     126       --         4.096 au  C             1.00      1 F:xyz           5
                        (     111.471 eV)
   127     127       --         4.096 au  C             1.00      1 F:z2x           5
                        (     111.471 eV)
   128     128       --         4.096 au  C             1.00      1 F:z2y           5
                        (     111.471 eV)
   129     129       --         4.096 au  C             1.00      1 F:x             5
                        (     111.471 eV)
   130     130       --         4.096 au  C             1.00      1 F:y             5
                        (     111.471 eV)
   131     131      2.000     -10.410 au  C             1.00      1 S               6
                        (    -283.268 eV)
   132     132      2.000      -0.583 au  C             1.00      2 S               6
                        (     -15.871 eV)
   133     133       --         0.414 au  C             1.00      3 S               6
                        (      11.266 eV)
   134     134       --         5.548 au  C             1.00      4 S               6
                        (     150.975 eV)
   135     135       --        50.362 au  C             1.00      5 S               6
                        (    1370.412 eV)
   136     136      0.667      -0.185 au  C             1.00      1 P:x             6
                        (      -5.048 eV)
   137     137       --         0.203 au  C             1.00      2 P:x             6
                        (       5.519 eV)
   138     138       --         2.124 au  C             1.00      3 P:x             6
                        (      57.805 eV)
   139     139      0.667      -0.185 au  C             1.00      1 P:y             6
                        (      -5.048 eV)
   140     140       --         0.203 au  C             1.00      2 P:y             6
                        (       5.519 eV)
   141     141       --         2.124 au  C             1.00      3 P:y             6
                        (      57.805 eV)
   142     142      0.667      -0.185 au  C             1.00      1 P:z             6
                        (      -5.048 eV)
   143     143       --         0.203 au  C             1.00      2 P:z             6
                        (       5.519 eV)
   144     144       --         2.124 au  C             1.00      3 P:z             6
                        (      57.805 eV)
   145     145       --         1.300 au  C             1.00      1 D:z2            6
                        (      35.364 eV)
   146     146       --         1.300 au  C             1.00      1 D:x2-y2         6
                        (      35.364 eV)
   147     147       --         1.300 au  C             1.00      1 D:xy            6
                        (      35.364 eV)
   148     148       --         1.300 au  C             1.00      1 D:xz            6
                        (      35.364 eV)
   149     149       --         1.300 au  C             1.00      1 D:yz            6
                        (      35.364 eV)
   150     150       --         4.096 au  C             1.00      1 F:z3            6
                        (     111.471 eV)
   151     151       --         4.096 au  C             1.00      1 F:z             6
                        (     111.471 eV)
   152     152       --         4.096 au  C             1.00      1 F:xyz           6
                        (     111.471 eV)
   153     153       --         4.096 au  C             1.00      1 F:z2x           6
                        (     111.471 eV)
   154     154       --         4.096 au  C             1.00      1 F:z2y           6
                        (     111.471 eV)
   155     155       --         4.096 au  C             1.00      1 F:x             6
                        (     111.471 eV)
   156     156       --         4.096 au  C             1.00      1 F:y             6
                        (     111.471 eV)
   157     157      2.000     -10.410 au  C             1.00      1 S               7
                        (    -283.268 eV)
   158     158      2.000      -0.583 au  C             1.00      2 S               7
                        (     -15.871 eV)
   159     159       --         0.414 au  C             1.00      3 S               7
                        (      11.266 eV)
   160     160       --         5.548 au  C             1.00      4 S               7
                        (     150.975 eV)
   161     161       --        50.362 au  C             1.00      5 S               7
                        (    1370.412 eV)
   162     162      0.667      -0.185 au  C             1.00      1 P:x             7
                        (      -5.048 eV)
   163     163       --         0.203 au  C             1.00      2 P:x             7
                        (       5.519 eV)
   164     164       --         2.124 au  C             1.00      3 P:x             7
                        (      57.805 eV)
   165     165      0.667      -0.185 au  C             1.00      1 P:y             7
                        (      -5.048 eV)
   166     166       --         0.203 au  C             1.00      2 P:y             7
                        (       5.519 eV)
   167     167       --         2.124 au  C             1.00      3 P:y             7
                        (      57.805 eV)
   168     168      0.667      -0.185 au  C             1.00      1 P:z             7
                        (      -5.048 eV)
   169     169       --         0.203 au  C             1.00      2 P:z             7
                        (       5.519 eV)
   170     170       --         2.124 au  C             1.00      3 P:z             7
                        (      57.805 eV)
   171     171       --         1.300 au  C             1.00      1 D:z2            7
                        (      35.364 eV)
   172     172       --         1.300 au  C             1.00      1 D:x2-y2         7
                        (      35.364 eV)
   173     173       --         1.300 au  C             1.00      1 D:xy            7
                        (      35.364 eV)
   174     174       --         1.300 au  C             1.00      1 D:xz            7
                        (      35.364 eV)
   175     175       --         1.300 au  C             1.00      1 D:yz            7
                        (      35.364 eV)
   176     176       --         4.096 au  C             1.00      1 F:z3            7
                        (     111.471 eV)
   177     177       --         4.096 au  C             1.00      1 F:z             7
                        (     111.471 eV)
   178     178       --         4.096 au  C             1.00      1 F:xyz           7
                        (     111.471 eV)
   179     179       --         4.096 au  C             1.00      1 F:z2x           7
                        (     111.471 eV)
   180     180       --         4.096 au  C             1.00      1 F:z2y           7
                        (     111.471 eV)
   181     181       --         4.096 au  C             1.00      1 F:x             7
                        (     111.471 eV)
   182     182       --         4.096 au  C             1.00      1 F:y             7
                        (     111.471 eV)
   183     183      2.000     -10.410 au  C             1.00      1 S               8
                        (    -283.268 eV)
   184     184      2.000      -0.583 au  C             1.00      2 S               8
                        (     -15.871 eV)
   185     185       --         0.414 au  C             1.00      3 S               8
                        (      11.266 eV)
   186     186       --         5.548 au  C             1.00      4 S               8
                        (     150.975 eV)
   187     187       --        50.362 au  C             1.00      5 S               8
                        (    1370.412 eV)
   188     188      0.667      -0.185 au  C             1.00      1 P:x             8
                        (      -5.048 eV)
   189     189       --         0.203 au  C             1.00      2 P:x             8
                        (       5.519 eV)
   190     190       --         2.124 au  C             1.00      3 P:x             8
                        (      57.805 eV)
   191     191      0.667      -0.185 au  C             1.00      1 P:y             8
                        (      -5.048 eV)
   192     192       --         0.203 au  C             1.00      2 P:y             8
                        (       5.519 eV)
   193     193       --         2.124 au  C             1.00      3 P:y             8
                        (      57.805 eV)
   194     194      0.667      -0.185 au  C             1.00      1 P:z             8
                        (      -5.048 eV)
   195     195       --         0.203 au  C             1.00      2 P:z             8
                        (       5.519 eV)
   196     196       --         2.124 au  C             1.00      3 P:z             8
                        (      57.805 eV)
   197     197       --         1.300 au  C             1.00      1 D:z2            8
                        (      35.364 eV)
   198     198       --         1.300 au  C             1.00      1 D:x2-y2         8
                        (      35.364 eV)
   199     199       --         1.300 au  C             1.00      1 D:xy            8
                        (      35.364 eV)
   200     200       --         1.300 au  C             1.00      1 D:xz            8
                        (      35.364 eV)
   201     201       --         1.300 au  C             1.00      1 D:yz            8
                        (      35.364 eV)
   202     202       --         4.096 au  C             1.00      1 F:z3            8
                        (     111.471 eV)
   203     203       --         4.096 au  C             1.00      1 F:z             8
                        (     111.471 eV)
   204     204       --         4.096 au  C             1.00      1 F:xyz           8
                        (     111.471 eV)
   205     205       --         4.096 au  C             1.00      1 F:z2x           8
                        (     111.471 eV)
   206     206       --         4.096 au  C             1.00      1 F:z2y           8
                        (     111.471 eV)
   207     207       --         4.096 au  C             1.00      1 F:x             8
                        (     111.471 eV)
   208     208       --         4.096 au  C             1.00      1 F:y             8
                        (     111.471 eV)
   209     209      2.000     -10.410 au  C             1.00      1 S               9
                        (    -283.268 eV)
   210     210      2.000      -0.583 au  C             1.00      2 S               9
                        (     -15.871 eV)
   211     211       --         0.414 au  C             1.00      3 S               9
                        (      11.266 eV)
   212     212       --         5.548 au  C             1.00      4 S               9
                        (     150.975 eV)
   213     213       --        50.362 au  C             1.00      5 S               9
                        (    1370.412 eV)
   214     214      0.667      -0.185 au  C             1.00      1 P:x             9
                        (      -5.048 eV)
   215     215       --         0.203 au  C             1.00      2 P:x             9
                        (       5.519 eV)
   216     216       --         2.124 au  C             1.00      3 P:x             9
                        (      57.805 eV)
   217     217      0.667      -0.185 au  C             1.00      1 P:y             9
                        (      -5.048 eV)
   218     218       --         0.203 au  C             1.00      2 P:y             9
                        (       5.519 eV)
   219     219       --         2.124 au  C             1.00      3 P:y             9
                        (      57.805 eV)
   220     220      0.667      -0.185 au  C             1.00      1 P:z             9
                        (      -5.048 eV)
   221     221       --         0.203 au  C             1.00      2 P:z             9
                        (       5.519 eV)
   222     222       --         2.124 au  C             1.00      3 P:z             9
                        (      57.805 eV)
   223     223       --         1.300 au  C             1.00      1 D:z2            9
                        (      35.364 eV)
   224     224       --         1.300 au  C             1.00      1 D:x2-y2         9
                        (      35.364 eV)
   225     225       --         1.300 au  C             1.00      1 D:xy            9
                        (      35.364 eV)
   226     226       --         1.300 au  C             1.00      1 D:xz            9
                        (      35.364 eV)
   227     227       --         1.300 au  C             1.00      1 D:yz            9
                        (      35.364 eV)
   228     228       --         4.096 au  C             1.00      1 F:z3            9
                        (     111.471 eV)
   229     229       --         4.096 au  C             1.00      1 F:z             9
                        (     111.471 eV)
   230     230       --         4.096 au  C             1.00      1 F:xyz           9
                        (     111.471 eV)
   231     231       --         4.096 au  C             1.00      1 F:z2x           9
                        (     111.471 eV)
   232     232       --         4.096 au  C             1.00      1 F:z2y           9
                        (     111.471 eV)
   233     233       --         4.096 au  C             1.00      1 F:x             9
                        (     111.471 eV)
   234     234       --         4.096 au  C             1.00      1 F:y             9
                        (     111.471 eV)
   235     235      2.000     -10.410 au  C             1.00      1 S              10
                        (    -283.268 eV)
   236     236      2.000      -0.583 au  C             1.00      2 S              10
                        (     -15.871 eV)
   237     237       --         0.414 au  C             1.00      3 S              10
                        (      11.266 eV)
   238     238       --         5.548 au  C             1.00      4 S              10
                        (     150.975 eV)
   239     239       --        50.362 au  C             1.00      5 S              10
                        (    1370.412 eV)
   240     240      0.667      -0.185 au  C             1.00      1 P:x            10
                        (      -5.048 eV)
   241     241       --         0.203 au  C             1.00      2 P:x            10
                        (       5.519 eV)
   242     242       --         2.124 au  C             1.00      3 P:x            10
                        (      57.805 eV)
   243     243      0.667      -0.185 au  C             1.00      1 P:y            10
                        (      -5.048 eV)
   244     244       --         0.203 au  C             1.00      2 P:y            10
                        (       5.519 eV)
   245     245       --         2.124 au  C             1.00      3 P:y            10
                        (      57.805 eV)
   246     246      0.667      -0.185 au  C             1.00      1 P:z            10
                        (      -5.048 eV)
   247     247       --         0.203 au  C             1.00      2 P:z            10
                        (       5.519 eV)
   248     248       --         2.124 au  C             1.00      3 P:z            10
                        (      57.805 eV)
   249     249       --         1.300 au  C             1.00      1 D:z2           10
                        (      35.364 eV)
   250     250       --         1.300 au  C             1.00      1 D:x2-y2        10
                        (      35.364 eV)
   251     251       --         1.300 au  C             1.00      1 D:xy           10
                        (      35.364 eV)
   252     252       --         1.300 au  C             1.00      1 D:xz           10
                        (      35.364 eV)
   253     253       --         1.300 au  C             1.00      1 D:yz           10
                        (      35.364 eV)
   254     254       --         4.096 au  C             1.00      1 F:z3           10
                        (     111.471 eV)
   255     255       --         4.096 au  C             1.00      1 F:z            10
                        (     111.471 eV)
   256     256       --         4.096 au  C             1.00      1 F:xyz          10
                        (     111.471 eV)
   257     257       --         4.096 au  C             1.00      1 F:z2x          10
                        (     111.471 eV)
   258     258       --         4.096 au  C             1.00      1 F:z2y          10
                        (     111.471 eV)
   259     259       --         4.096 au  C             1.00      1 F:x            10
                        (     111.471 eV)
   260     260       --         4.096 au  C             1.00      1 F:y            10
                        (     111.471 eV)
   261     261      2.000     -10.410 au  C             1.00      1 S              11
                        (    -283.268 eV)
   262     262      2.000      -0.583 au  C             1.00      2 S              11
                        (     -15.871 eV)
   263     263       --         0.414 au  C             1.00      3 S              11
                        (      11.266 eV)
   264     264       --         5.548 au  C             1.00      4 S              11
                        (     150.975 eV)
   265     265       --        50.362 au  C             1.00      5 S              11
                        (    1370.412 eV)
   266     266      0.667      -0.185 au  C             1.00      1 P:x            11
                        (      -5.048 eV)
   267     267       --         0.203 au  C             1.00      2 P:x            11
                        (       5.519 eV)
   268     268       --         2.124 au  C             1.00      3 P:x            11
                        (      57.805 eV)
   269     269      0.667      -0.185 au  C             1.00      1 P:y            11
                        (      -5.048 eV)
   270     270       --         0.203 au  C             1.00      2 P:y            11
                        (       5.519 eV)
   271     271       --         2.124 au  C             1.00      3 P:y            11
                        (      57.805 eV)
   272     272      0.667      -0.185 au  C             1.00      1 P:z            11
                        (      -5.048 eV)
   273     273       --         0.203 au  C             1.00      2 P:z            11
                        (       5.519 eV)
   274     274       --         2.124 au  C             1.00      3 P:z            11
                        (      57.805 eV)
   275     275       --         1.300 au  C             1.00      1 D:z2           11
                        (      35.364 eV)
   276     276       --         1.300 au  C             1.00      1 D:x2-y2        11
                        (      35.364 eV)
   277     277       --         1.300 au  C             1.00      1 D:xy           11
                        (      35.364 eV)
   278     278       --         1.300 au  C             1.00      1 D:xz           11
                        (      35.364 eV)
   279     279       --         1.300 au  C             1.00      1 D:yz           11
                        (      35.364 eV)
   280     280       --         4.096 au  C             1.00      1 F:z3           11
                        (     111.471 eV)
   281     281       --         4.096 au  C             1.00      1 F:z            11
                        (     111.471 eV)
   282     282       --         4.096 au  C             1.00      1 F:xyz          11
                        (     111.471 eV)
   283     283       --         4.096 au  C             1.00      1 F:z2x          11
                        (     111.471 eV)
   284     284       --         4.096 au  C             1.00      1 F:z2y          11
                        (     111.471 eV)
   285     285       --         4.096 au  C             1.00      1 F:x            11
                        (     111.471 eV)
   286     286       --         4.096 au  C             1.00      1 F:y            11
                        (     111.471 eV)
   287     287      2.000     -10.410 au  C             1.00      1 S              12
                        (    -283.268 eV)
   288     288      2.000      -0.583 au  C             1.00      2 S              12
                        (     -15.871 eV)
   289     289       --         0.414 au  C             1.00      3 S              12
                        (      11.266 eV)
   290     290       --         5.548 au  C             1.00      4 S              12
                        (     150.975 eV)
   291     291       --        50.362 au  C             1.00      5 S              12
                        (    1370.412 eV)
   292     292      0.667      -0.185 au  C             1.00      1 P:x            12
                        (      -5.048 eV)
   293     293       --         0.203 au  C             1.00      2 P:x            12
                        (       5.519 eV)
   294     294       --         2.124 au  C             1.00      3 P:x            12
                        (      57.805 eV)
   295     295      0.667      -0.185 au  C             1.00      1 P:y            12
                        (      -5.048 eV)
   296     296       --         0.203 au  C             1.00      2 P:y            12
                        (       5.519 eV)
   297     297       --         2.124 au  C             1.00      3 P:y            12
                        (      57.805 eV)
   298     298      0.667      -0.185 au  C             1.00      1 P:z            12
                        (      -5.048 eV)
   299     299       --         0.203 au  C             1.00      2 P:z            12
                        (       5.519 eV)
   300     300       --         2.124 au  C             1.00      3 P:z            12
                        (      57.805 eV)
   301     301       --         1.300 au  C             1.00      1 D:z2           12
                        (      35.364 eV)
   302     302       --         1.300 au  C             1.00      1 D:x2-y2        12
                        (      35.364 eV)
   303     303       --         1.300 au  C             1.00      1 D:xy           12
                        (      35.364 eV)
   304     304       --         1.300 au  C             1.00      1 D:xz           12
                        (      35.364 eV)
   305     305       --         1.300 au  C             1.00      1 D:yz           12
                        (      35.364 eV)
   306     306       --         4.096 au  C             1.00      1 F:z3           12
                        (     111.471 eV)
   307     307       --         4.096 au  C             1.00      1 F:z            12
                        (     111.471 eV)
   308     308       --         4.096 au  C             1.00      1 F:xyz          12
                        (     111.471 eV)
   309     309       --         4.096 au  C             1.00      1 F:z2x          12
                        (     111.471 eV)
   310     310       --         4.096 au  C             1.00      1 F:z2y          12
                        (     111.471 eV)
   311     311       --         4.096 au  C             1.00      1 F:x            12
                        (     111.471 eV)
   312     312       --         4.096 au  C             1.00      1 F:y            12
                        (     111.471 eV)
   313     313      2.000     -10.410 au  C             1.00      1 S              13
                        (    -283.268 eV)
   314     314      2.000      -0.583 au  C             1.00      2 S              13
                        (     -15.871 eV)
   315     315       --         0.414 au  C             1.00      3 S              13
                        (      11.266 eV)
   316     316       --         5.548 au  C             1.00      4 S              13
                        (     150.975 eV)
   317     317       --        50.362 au  C             1.00      5 S              13
                        (    1370.412 eV)
   318     318      0.667      -0.185 au  C             1.00      1 P:x            13
                        (      -5.048 eV)
   319     319       --         0.203 au  C             1.00      2 P:x            13
                        (       5.519 eV)
   320     320       --         2.124 au  C             1.00      3 P:x            13
                        (      57.805 eV)
   321     321      0.667      -0.185 au  C             1.00      1 P:y            13
                        (      -5.048 eV)
   322     322       --         0.203 au  C             1.00      2 P:y            13
                        (       5.519 eV)
   323     323       --         2.124 au  C             1.00      3 P:y            13
                        (      57.805 eV)
   324     324      0.667      -0.185 au  C             1.00      1 P:z            13
                        (      -5.048 eV)
   325     325       --         0.203 au  C             1.00      2 P:z            13
                        (       5.519 eV)
   326     326       --         2.124 au  C             1.00      3 P:z            13
                        (      57.805 eV)
   327     327       --         1.300 au  C             1.00      1 D:z2           13
                        (      35.364 eV)
   328     328       --         1.300 au  C             1.00      1 D:x2-y2        13
                        (      35.364 eV)
   329     329       --         1.300 au  C             1.00      1 D:xy           13
                        (      35.364 eV)
   330     330       --         1.300 au  C             1.00      1 D:xz           13
                        (      35.364 eV)
   331     331       --         1.300 au  C             1.00      1 D:yz           13
                        (      35.364 eV)
   332     332       --         4.096 au  C             1.00      1 F:z3           13
                        (     111.471 eV)
   333     333       --         4.096 au  C             1.00      1 F:z            13
                        (     111.471 eV)
   334     334       --         4.096 au  C             1.00      1 F:xyz          13
                        (     111.471 eV)
   335     335       --         4.096 au  C             1.00      1 F:z2x          13
                        (     111.471 eV)
   336     336       --         4.096 au  C             1.00      1 F:z2y          13
                        (     111.471 eV)
   337     337       --         4.096 au  C             1.00      1 F:x            13
                        (     111.471 eV)
   338     338       --         4.096 au  C             1.00      1 F:y            13
                        (     111.471 eV)
   339     339      2.000     -10.410 au  C             1.00      1 S              14
                        (    -283.268 eV)
   340     340      2.000      -0.583 au  C             1.00      2 S              14
                        (     -15.871 eV)
   341     341       --         0.414 au  C             1.00      3 S              14
                        (      11.266 eV)
   342     342       --         5.548 au  C             1.00      4 S              14
                        (     150.975 eV)
   343     343       --        50.362 au  C             1.00      5 S              14
                        (    1370.412 eV)
   344     344      0.667      -0.185 au  C             1.00      1 P:x            14
                        (      -5.048 eV)
   345     345       --         0.203 au  C             1.00      2 P:x            14
                        (       5.519 eV)
   346     346       --         2.124 au  C             1.00      3 P:x            14
                        (      57.805 eV)
   347     347      0.667      -0.185 au  C             1.00      1 P:y            14
                        (      -5.048 eV)
   348     348       --         0.203 au  C             1.00      2 P:y            14
                        (       5.519 eV)
   349     349       --         2.124 au  C             1.00      3 P:y            14
                        (      57.805 eV)
   350     350      0.667      -0.185 au  C             1.00      1 P:z            14
                        (      -5.048 eV)
   351     351       --         0.203 au  C             1.00      2 P:z            14
                        (       5.519 eV)
   352     352       --         2.124 au  C             1.00      3 P:z            14
                        (      57.805 eV)
   353     353       --         1.300 au  C             1.00      1 D:z2           14
                        (      35.364 eV)
   354     354       --         1.300 au  C             1.00      1 D:x2-y2        14
                        (      35.364 eV)
   355     355       --         1.300 au  C             1.00      1 D:xy           14
                        (      35.364 eV)
   356     356       --         1.300 au  C             1.00      1 D:xz           14
                        (      35.364 eV)
   357     357       --         1.300 au  C             1.00      1 D:yz           14
                        (      35.364 eV)
   358     358       --         4.096 au  C             1.00      1 F:z3           14
                        (     111.471 eV)
   359     359       --         4.096 au  C             1.00      1 F:z            14
                        (     111.471 eV)
   360     360       --         4.096 au  C             1.00      1 F:xyz          14
                        (     111.471 eV)
   361     361       --         4.096 au  C             1.00      1 F:z2x          14
                        (     111.471 eV)
   362     362       --         4.096 au  C             1.00      1 F:z2y          14
                        (     111.471 eV)
   363     363       --         4.096 au  C             1.00      1 F:x            14
                        (     111.471 eV)
   364     364       --         4.096 au  C             1.00      1 F:y            14
                        (     111.471 eV)
   365     365      2.000     -10.410 au  C             1.00      1 S              15
                        (    -283.268 eV)
   366     366      2.000      -0.583 au  C             1.00      2 S              15
                        (     -15.871 eV)
   367     367       --         0.414 au  C             1.00      3 S              15
                        (      11.266 eV)
   368     368       --         5.548 au  C             1.00      4 S              15
                        (     150.975 eV)
   369     369       --        50.362 au  C             1.00      5 S              15
                        (    1370.412 eV)
   370     370      0.667      -0.185 au  C             1.00      1 P:x            15
                        (      -5.048 eV)
   371     371       --         0.203 au  C             1.00      2 P:x            15
                        (       5.519 eV)
   372     372       --         2.124 au  C             1.00      3 P:x            15
                        (      57.805 eV)
   373     373      0.667      -0.185 au  C             1.00      1 P:y            15
                        (      -5.048 eV)
   374     374       --         0.203 au  C             1.00      2 P:y            15
                        (       5.519 eV)
   375     375       --         2.124 au  C             1.00      3 P:y            15
                        (      57.805 eV)
   376     376      0.667      -0.185 au  C             1.00      1 P:z            15
                        (      -5.048 eV)
   377     377       --         0.203 au  C             1.00      2 P:z            15
                        (       5.519 eV)
   378     378       --         2.124 au  C             1.00      3 P:z            15
                        (      57.805 eV)
   379     379       --         1.300 au  C             1.00      1 D:z2           15
                        (      35.364 eV)
   380     380       --         1.300 au  C             1.00      1 D:x2-y2        15
                        (      35.364 eV)
   381     381       --         1.300 au  C             1.00      1 D:xy           15
                        (      35.364 eV)
   382     382       --         1.300 au  C             1.00      1 D:xz           15
                        (      35.364 eV)
   383     383       --         1.300 au  C             1.00      1 D:yz           15
                        (      35.364 eV)
   384     384       --         4.096 au  C             1.00      1 F:z3           15
                        (     111.471 eV)
   385     385       --         4.096 au  C             1.00      1 F:z            15
                        (     111.471 eV)
   386     386       --         4.096 au  C             1.00      1 F:xyz          15
                        (     111.471 eV)
   387     387       --         4.096 au  C             1.00      1 F:z2x          15
                        (     111.471 eV)
   388     388       --         4.096 au  C             1.00      1 F:z2y          15
                        (     111.471 eV)
   389     389       --         4.096 au  C             1.00      1 F:x            15
                        (     111.471 eV)
   390     390       --         4.096 au  C             1.00      1 F:y            15
                        (     111.471 eV)
   391     391      2.000     -10.410 au  C             1.00      1 S              16
                        (    -283.268 eV)
   392     392      2.000      -0.583 au  C             1.00      2 S              16
                        (     -15.871 eV)
   393     393       --         0.414 au  C             1.00      3 S              16
                        (      11.266 eV)
   394     394       --         5.548 au  C             1.00      4 S              16
                        (     150.975 eV)
   395     395       --        50.362 au  C             1.00      5 S              16
                        (    1370.412 eV)
   396     396      0.667      -0.185 au  C             1.00      1 P:x            16
                        (      -5.048 eV)
   397     397       --         0.203 au  C             1.00      2 P:x            16
                        (       5.519 eV)
   398     398       --         2.124 au  C             1.00      3 P:x            16
                        (      57.805 eV)
   399     399      0.667      -0.185 au  C             1.00      1 P:y            16
                        (      -5.048 eV)
   400     400       --         0.203 au  C             1.00      2 P:y            16
                        (       5.519 eV)
   401     401       --         2.124 au  C             1.00      3 P:y            16
                        (      57.805 eV)
   402     402      0.667      -0.185 au  C             1.00      1 P:z            16
                        (      -5.048 eV)
   403     403       --         0.203 au  C             1.00      2 P:z            16
                        (       5.519 eV)
   404     404       --         2.124 au  C             1.00      3 P:z            16
                        (      57.805 eV)
   405     405       --         1.300 au  C             1.00      1 D:z2           16
                        (      35.364 eV)
   406     406       --         1.300 au  C             1.00      1 D:x2-y2        16
                        (      35.364 eV)
   407     407       --         1.300 au  C             1.00      1 D:xy           16
                        (      35.364 eV)
   408     408       --         1.300 au  C             1.00      1 D:xz           16
                        (      35.364 eV)
   409     409       --         1.300 au  C             1.00      1 D:yz           16
                        (      35.364 eV)
   410     410       --         4.096 au  C             1.00      1 F:z3           16
                        (     111.471 eV)
   411     411       --         4.096 au  C             1.00      1 F:z            16
                        (     111.471 eV)
   412     412       --         4.096 au  C             1.00      1 F:xyz          16
                        (     111.471 eV)
   413     413       --         4.096 au  C             1.00      1 F:z2x          16
                        (     111.471 eV)
   414     414       --         4.096 au  C             1.00      1 F:z2y          16
                        (     111.471 eV)
   415     415       --         4.096 au  C             1.00      1 F:x            16
                        (     111.471 eV)
   416     416       --         4.096 au  C             1.00      1 F:y            16
                        (     111.471 eV)
   417     417      2.000     -10.410 au  C             1.00      1 S              17
                        (    -283.268 eV)
   418     418      2.000      -0.583 au  C             1.00      2 S              17
                        (     -15.871 eV)
   419     419       --         0.414 au  C             1.00      3 S              17
                        (      11.266 eV)
   420     420       --         5.548 au  C             1.00      4 S              17
                        (     150.975 eV)
   421     421       --        50.362 au  C             1.00      5 S              17
                        (    1370.412 eV)
   422     422      0.667      -0.185 au  C             1.00      1 P:x            17
                        (      -5.048 eV)
   423     423       --         0.203 au  C             1.00      2 P:x            17
                        (       5.519 eV)
   424     424       --         2.124 au  C             1.00      3 P:x            17
                        (      57.805 eV)
   425     425      0.667      -0.185 au  C             1.00      1 P:y            17
                        (      -5.048 eV)
   426     426       --         0.203 au  C             1.00      2 P:y            17
                        (       5.519 eV)
   427     427       --         2.124 au  C             1.00      3 P:y            17
                        (      57.805 eV)
   428     428      0.667      -0.185 au  C             1.00      1 P:z            17
                        (      -5.048 eV)
   429     429       --         0.203 au  C             1.00      2 P:z            17
                        (       5.519 eV)
   430     430       --         2.124 au  C             1.00      3 P:z            17
                        (      57.805 eV)
   431     431       --         1.300 au  C             1.00      1 D:z2           17
                        (      35.364 eV)
   432     432       --         1.300 au  C             1.00      1 D:x2-y2        17
                        (      35.364 eV)
   433     433       --         1.300 au  C             1.00      1 D:xy           17
                        (      35.364 eV)
   434     434       --         1.300 au  C             1.00      1 D:xz           17
                        (      35.364 eV)
   435     435       --         1.300 au  C             1.00      1 D:yz           17
                        (      35.364 eV)
   436     436       --         4.096 au  C             1.00      1 F:z3           17
                        (     111.471 eV)
   437     437       --         4.096 au  C             1.00      1 F:z            17
                        (     111.471 eV)
   438     438       --         4.096 au  C             1.00      1 F:xyz          17
                        (     111.471 eV)
   439     439       --         4.096 au  C             1.00      1 F:z2x          17
                        (     111.471 eV)
   440     440       --         4.096 au  C             1.00      1 F:z2y          17
                        (     111.471 eV)
   441     441       --         4.096 au  C             1.00      1 F:x            17
                        (     111.471 eV)
   442     442       --         4.096 au  C             1.00      1 F:y            17
                        (     111.471 eV)
   443     443      2.000     -10.410 au  C             1.00      1 S              18
                        (    -283.268 eV)
   444     444      2.000      -0.583 au  C             1.00      2 S              18
                        (     -15.871 eV)
   445     445       --         0.414 au  C             1.00      3 S              18
                        (      11.266 eV)
   446     446       --         5.548 au  C             1.00      4 S              18
                        (     150.975 eV)
   447     447       --        50.362 au  C             1.00      5 S              18
                        (    1370.412 eV)
   448     448      0.667      -0.185 au  C             1.00      1 P:x            18
                        (      -5.048 eV)
   449     449       --         0.203 au  C             1.00      2 P:x            18
                        (       5.519 eV)
   450     450       --         2.124 au  C             1.00      3 P:x            18
                        (      57.805 eV)
   451     451      0.667      -0.185 au  C             1.00      1 P:y            18
                        (      -5.048 eV)
   452     452       --         0.203 au  C             1.00      2 P:y            18
                        (       5.519 eV)
   453     453       --         2.124 au  C             1.00      3 P:y            18
                        (      57.805 eV)
   454     454      0.667      -0.185 au  C             1.00      1 P:z            18
                        (      -5.048 eV)
   455     455       --         0.203 au  C             1.00      2 P:z            18
                        (       5.519 eV)
   456     456       --         2.124 au  C             1.00      3 P:z            18
                        (      57.805 eV)
   457     457       --         1.300 au  C             1.00      1 D:z2           18
                        (      35.364 eV)
   458     458       --         1.300 au  C             1.00      1 D:x2-y2        18
                        (      35.364 eV)
[...]
     451       41.6092         0.000       
     450       41.2107         0.000       
     449       41.2107         0.000       
     448       40.2524         0.000       
     447       40.2524         0.000       
     446       40.0897         0.000       
     445       40.0897         0.000       
     444       39.8601         0.000       
     443       39.8601         0.000       
     442       39.7546         0.000       
     441       39.7546         0.000       
     440       39.5095         0.000       
     439       39.5095         0.000       
     438       39.2398         0.000       
     437       39.2398         0.000       
     436       39.1538         0.000       
     435       39.1538         0.000       
     434       38.8400         0.000       
     433       38.8400         0.000       
     432       38.7201         0.000       
     431       38.7201         0.000       
     430       38.1800         0.000       
     429       38.1800         0.000       
     428       38.1239         0.000       
     427       38.1239         0.000       
     426       37.9963         0.000       
     425       37.9963         0.000       
     424       37.8533         0.000       
     423       37.8533         0.000       
     422       37.1961         0.000       
     421       37.1961         0.000       
     420       37.1268         0.000       
     419       37.1268         0.000       
     418       36.5705         0.000       
     417       36.5705         0.000       
     416       36.0896         0.000       
     415       36.0896         0.000       
     414       36.0883         0.000       
     413       36.0883         0.000       
     412       35.7841         0.000       
     411       35.7841         0.000       
     410       34.7614         0.000       
     409       34.7614         0.000       
     408       34.6420         0.000       
     407       34.6420         0.000       
     406       34.4189         0.000       
     405       34.4189         0.000       
     404       33.8543         0.000       
     403       33.8543         0.000       
     402       32.9743         0.000       
     401       32.9743         0.000       
     400       31.6365         0.000       
     399       31.6365         0.000       
     398       31.4853         0.000       
     397       31.4853         0.000       
     396       30.9592         0.000       
     395       30.9592         0.000       
     394       30.9121         0.000       
     393       30.9121         0.000       
     392       30.7831         0.000       
     391       30.7831         0.000       
     390       30.4885         0.000       
     389       30.4885         0.000       
     388       30.2498         0.000       
     387       30.2498         0.000       
     386       30.2393         0.000       
     385       30.2393         0.000       
     384       30.1052         0.000       
     383       30.1052         0.000       
     382       29.2909         0.000       
     381       29.2909         0.000       
     380       29.0535         0.000       
     379       29.0535         0.000       
     378       28.6081         0.000       
     377       28.6081         0.000       
     376       28.3463         0.000       
     375       28.3463         0.000       
     374       28.3045         0.000       
     373       28.3045         0.000       
     372       27.9121         0.000       
     371       27.9121         0.000       
     370       27.7516         0.000       
     369       27.7516         0.000       
     368       27.7381         0.000       
     367       27.7381         0.000       
     366       27.7007         0.000       
     365       27.7007         0.000       
     364       27.3335         0.000       
     363       27.3335         0.000       
     362       27.1222         0.000       
     361       27.1222         0.000       
     360       27.0832         0.000       
     359       27.0832         0.000       
     358       26.9932         0.000       
     357       26.9932         0.000       
     356       26.5619         0.000       
     355       26.5619         0.000       
     354       26.3900         0.000       
     353       26.3900         0.000       
     352       26.1306         0.000       
     351       26.1306         0.000       
     350       26.0414         0.000       
     349       26.0414         0.000       
     348       25.5497         0.000       
     347       25.5497         0.000       
     346       25.4754         0.000       
     345       25.4754         0.000       
     344       25.0793         0.000       
     343       25.0793         0.000       
     342       24.3723         0.000       
     341       24.3723         0.000       
     340       24.2077         0.000       
     339       24.2077         0.000       
     338       23.9025         0.000       
     337       23.9025         0.000       
     336       23.6916         0.000       
     335       23.6916         0.000       
     334       23.0993         0.000       
     333       23.0993         0.000       
     332       22.3722         0.000       
     331       22.3722         0.000       
     330       21.6586         0.000       
     329       21.6586         0.000       
     328       21.5446         0.000       
     327       21.5446         0.000       
     326       21.5269         0.000       
     325       21.5269         0.000       
     324       21.3359         0.000       
     323       21.3359         0.000       
     322       20.8688         0.000       
     321       20.8688         0.000       
     320       20.5948         0.000       
     319       20.5948         0.000       
     318       20.4978         0.000       
     317       20.4978         0.000       
     316       20.3563         0.000       
     315       20.3563         0.000       
     314       19.9352         0.000       
     313       19.9352         0.000       
     312       19.8705         0.000       
     311       19.8705         0.000       
     310       19.8687         0.000       
     309       19.8687         0.000       
     308       19.5684         0.000       
     307       19.5684         0.000       
     306       19.2299         0.000       
     305       19.2299         0.000       
     304       19.2006         0.000       
     303       19.2006         0.000       
     302       19.0822         0.000       
     301       19.0822         0.000       
     300       18.7134         0.000       
     299       18.7134         0.000       
     298       18.6191         0.000       
     297       18.6191         0.000       
     296       18.3489         0.000       
     295       18.3489         0.000       
     294       18.0104         0.000       
     293       18.0104         0.000       
     292       17.4066         0.000       
     291       17.4066         0.000       
     290       17.3979         0.000       
     289       17.3979         0.000       
     288       17.0480         0.000       
     287       17.0480         0.000       
     286       16.6687         0.000       
     285       16.6687         0.000       
     284       16.4680         0.000       
     283       16.4680         0.000       
     282       16.3548         0.000       
     281       16.3548         0.000       
     280       16.1817         0.000       
     279       16.1817         0.000       
     278       15.5758         0.000       
     277       15.5758         0.000       
     276       15.0832         0.000       
     275       15.0832         0.000       
     274       14.8908         0.000       
     273       14.8908         0.000       
     272       13.6818         0.000       
     271       13.6818         0.000       
     270       13.6677         0.000       
     269       13.6677         0.000       
     268       13.4687         0.000       
     267       13.4687         0.000       
     266       13.4098         0.000       
     265       13.4098         0.000       
     264       13.1851         0.000       
     263       13.1851         0.000       
     262       13.1387         0.000       
     261       13.1387         0.000       
     260       12.9763         0.000       
     259       12.9763         0.000       
     258       12.9407         0.000       
     257       12.9407         0.000       
     256       12.4640         0.000       
     255       12.4640         0.000       
     254       12.1282         0.000       
     253       12.1282         0.000       
     252       11.5801         0.000       
     251       11.5801         0.000       
     250       11.4311         0.000       
     249       11.4311         0.000       
     248       11.2189         0.000       
     247       11.2189         0.000       
     246       11.1732         0.000       
     245       11.1732         0.000       
     244       11.0132         0.000       
     243       11.0132         0.000       
     242       10.7366         0.000       
     241       10.7366         0.000       
     240       10.6325         0.000       
     239       10.6325         0.000       
     238       10.5412         0.000       
     237       10.5412         0.000       
     236       10.3390         0.000       
     235       10.3390         0.000       
     234       10.2578         0.000       
     233       10.2578         0.000       
     232       10.1540         0.000       
     231       10.1540         0.000       
     230        9.9650         0.000       
     229        9.9650         0.000       
     228        9.8029         0.000       
     227        9.8029         0.000       
     226        9.4696         0.000       
     225        9.4696         0.000       
     224        9.4091         0.000       
     223        9.4091         0.000       
     222        9.2818         0.000       
     221        9.2818         0.000       
     220        9.1905         0.000       
     219        9.1905         0.000       
     218        9.1748         0.000       
     217        9.1748         0.000       
     216        8.7838         0.000       
     215        8.7838         0.000       
     214        8.6579         0.000       
     213        8.6579         0.000       
     212        8.4062         0.000       
     211        8.4062         0.000       
     210        8.3760         0.000       
     209        8.3760         0.000       
     208        7.8214         0.000       
     207        7.8214         0.000       
     206        7.7496         0.000       
     205        7.7496         0.000       
     204        7.3135         0.000       
     203        7.3135         0.000       
     202        7.3017         0.000       
     201        7.3017         0.000       
     200        7.1849         0.000       
     199        7.1849         0.000       
     198        7.0427         0.000       
     197        7.0427         0.000       
     196        7.0054         0.000       
     195        7.0054         0.000       
     194        6.5731         0.000       
     193        6.5731         0.000       
     192        6.5099         0.000       
     191        6.5099         0.000       
     190        6.3076         0.000       
     189        6.3076         0.000       
     188        6.2205         0.000       
     187        6.2205         0.000       
     186        6.1364         0.000       
     185        6.1364         0.000       
     184        5.9096         0.000       
     183        5.9096         0.000       
     182        5.6927         0.000       
     181        5.6927         0.000       
     180        5.6493         0.000       
     179        5.6493         0.000       
     178        5.3262         0.000       
     177        5.3262         0.000       
     176        5.2202         0.000       
     175        5.2202         0.000       
     174        5.1978         0.000       
     173        5.1978         0.000       
     172        5.0527         0.000       
     171        5.0527         0.000       
     170        4.7428         0.000       
     169        4.7428         0.000       
     168        4.7013         0.000       
     167        4.7013         0.000       
     166        4.6944         0.000       
     165        4.6944         0.000       
     164        4.1635         0.000       
     163        4.1635         0.000       
     162        4.0228         0.000       
     161        4.0228         0.000       
     160        3.9737         0.000       
     159        3.9737         0.000       
     158        3.6844         0.000       
     157        3.6844         0.000       
     156        3.1805         0.000       
     155        3.1805         0.000       
     154        2.9573         0.000       
     153        2.9573         0.000       
     152        2.6608         0.000       
     151        2.6608         0.000       
     150        2.6203         0.000       
     149        2.6203         0.000       
     148        1.9562         0.000       
     147        1.9562         0.000       
     146        1.8348         0.000       
     145        1.8348         0.000       
     144        1.4501         0.000       
     143        1.4501         0.000       
     142        1.1712         0.000       
     141        1.1712         0.000       
     140        0.9511         0.000       
     139        0.9511         0.000       
     138        0.9189         0.000       
     137        0.9189         0.000       
     136        0.6827         0.000       
     135        0.6827         0.000       
     134        0.4665         0.000       
     133        0.4665         0.000       
     132        0.2155         0.000       
     131        0.2155         0.000       
     130       -0.6551         0.000       
     129       -0.6551         0.000       
     128       -0.8385         0.000       
     127       -0.8385         0.000       
     126       -1.5413         0.000       
     125       -1.5413         0.000       
     124       -1.6530         0.000       
     123       -1.6530         0.000 < LUMO
     122       -6.7194         1.000 < HOMO
     121       -6.7194         1.000       
     120       -7.2929         1.000       
     119       -7.2929         1.000       
     118       -7.4582         1.000       
     117       -7.4582         1.000       
     116       -7.5410         1.000       
     115       -7.5410         1.000       
     114       -7.9711         1.000       
     113       -7.9711         1.000       
     112       -8.2614         1.000       
     111       -8.2614         1.000       
     110       -8.4233         1.000       
     109       -8.4233         1.000       
     108       -8.5328         1.000       
     107       -8.5328         1.000       
     106       -8.8806         1.000       
     105       -8.8806         1.000       
     104      -10.1045         1.000       
     103      -10.1045         1.000       
     102      -10.5195         1.000       
     101      -10.5195         1.000       
     100      -10.7540         1.000       
      99      -10.7540         1.000       
      98      -11.0686         1.000       
      97      -11.0686         1.000       
      96      -11.2849         1.000       
      95      -11.2849         1.000       
      94      -11.5710         1.000       
      93      -11.5710         1.000       
      92      -11.7214         1.000       
      91      -11.7214         1.000       
      90      -11.7398         1.000       
      89      -11.7398         1.000       
      88      -12.0576         1.000       
      87      -12.0576         1.000       
      86      -12.2880         1.000       
      85      -12.2880         1.000       
      84      -12.4236         1.000       
      83      -12.4236         1.000       
      82      -12.9617         1.000       
      81      -12.9617         1.000       
      80      -13.1208         1.000       
      79      -13.1208         1.000       
      78      -13.4468         1.000       
      77      -13.4468         1.000       
      76      -13.7825         1.000       
      75      -13.7825         1.000       
      74      -14.0302         1.000       
      73      -14.0302         1.000       
      72      -14.1528         1.000       
      71      -14.1528         1.000       
      70      -14.8111         1.000       
      69      -14.8111         1.000       
      68      -15.4177         1.000       
      67      -15.4177         1.000       
      66      -16.8325         1.000       
      65      -16.8325         1.000       
      64      -17.0237         1.000       
      63      -17.0237         1.000       
      62      -17.8813         1.000       
      61      -17.8813         1.000       
      60      -17.8843         1.000       
      59      -17.8843         1.000       
      58      -18.6085         1.000       
      57      -18.6085         1.000       
      56      -18.6961         1.000       
      55      -18.6961         1.000       
      54      -20.8175         1.000       
      53      -20.8175         1.000       
      52      -21.7092         1.000       
      51      -21.7092         1.000       
      50      -22.6398         1.000       
      49      -22.6398         1.000       
      48      -22.6787         1.000       
      47      -22.6787         1.000       
      46      -22.8696         1.000       
      45      -22.8696         1.000       
      44      -22.9023         1.000       
      43      -22.9023         1.000       
      42      -26.4465         1.000       
      41      -26.4465         1.000       
      40      -26.8028         1.000       
      39      -26.8028         1.000       
      38      -27.1596         1.000       
      37      -27.1596         1.000       
      36     -278.6118         1.000       
      35     -278.6118         1.000       
      34     -278.6129         1.000       
      33     -278.6129         1.000       
      32     -278.6974         1.000       
      31     -278.6974         1.000       
      30     -278.6983         1.000       
      29     -278.6983         1.000       
      28     -278.7942         1.000       
      27     -278.7942         1.000       
      26     -278.7951         1.000       
      25     -278.7951         1.000       
      24     -278.9097         1.000       
      23     -278.9097         1.000       
      22     -279.0458         1.000       
      21     -279.0458         1.000       
      20     -279.0459         1.000       
      19     -279.0459         1.000       
      18     -279.4501         1.000       
      17     -279.4501         1.000       
      16     -279.4510         1.000       
      15     -279.4510         1.000       
      14     -279.6427         1.000       
      13     -279.6427         1.000       
      12     -279.6441         1.000       
      11     -279.6441         1.000       
      10     -279.6740         1.000       
       9     -279.6740         1.000       
       8     -279.6753         1.000       
       7     -279.6753         1.000       
       6     -391.6339         1.000       
       5     -391.6339         1.000       
       4     -391.6638         1.000       
       3     -391.6638         1.000       
       2     -391.6644         1.000       
       1     -391.6644         1.000       

AMS application finished. Exiting.
NORMAL TERMINATION
     Total cpu time:     653.23
  Total system time:      13.68
 Total elapsed time:     681.23
