

 Parallel Execution: Process Information
 ==============================================================================
 Rank   Node Name                              NodeID   MyNodeRank  NodeMaster
    0   u-0-11.local                              0          0          0
    1   u-0-11.local                              0          1         -1
    2   u-0-11.local                              1          0          1
    3   u-0-11.local                              1          1         -1
    4   u-0-11.local                              2          0          2
    5   u-0-11.local                              2          1         -1
    6   u-0-11.local                              3          0          3
    7   u-0-11.local                              3          1         -1
 ==============================================================================


May use up to 31200MB of RAM as shared memory on node 0
May use up to 31250MB of RAM as shared memory on node 1
May use up to 31250MB of RAM as shared memory on node 2
May use up to 31250MB of RAM as shared memory on node 3

 *******************************************************************************
 *                                                                             *
 *  --------------------------------                                           *
 *   Amsterdam Modeling Suite (AMS)              2025.104                      *
 *  --------------------------------                                           *
 *                                               r250815 2025-08-15 94ea0506   *
 *                                                                             *
 *                                                                             *
 *                              =================                              *
 *                              |               |                              *
 *                              |     A M S     |                              *
 *                              |               |                              *
 *                              =================                              *
 *                                                                             *
 *                                                                             *
 *   Online information and documentation:  https://www.scm.com/support/       *
 *   E-mail:  support@scm.com   info@scm.com                                   *
 *                                                                             *
 *   Scientific publications using AMS results must be properly referenced     *
 *   See the User Manuals (or the web site) for recommended citations          *
 *   The terms and conditions of the End User License Agreement apply to       *
 *   the use of AMS, https://www.scm.com/license-terms/                        *
 *                                                                             *
 **********************  x86_64_linux_intel / intelmpi  ************************
 
 Licensed to: Dr. Val?rie Vallet / Laboratoire PhLAM UMR 8523 / Villeneuve d'Ascq Cedex / FRANCE 2024-12-20 16:14:47
 SCM User ID: u10325
  
 AMS 2025.104  RunTime: Nov13-2025 11:53:07  ShM Nodes: 4  Procs: 8

 AMS jobname: terpy.pbe0-d3bj-gp.x2c-sr
 AMS jobid  : 66028868

 Start   directory: /state/partition2/vallet/1073343.phlam-s-sakura/
 Results directory: /home/vallet/ANL/ANL-UVI-structures-Emily/terpy/X2C-SO/terpy.pbe0-d3bj-gp.x2c-sr.results/
 Scratch directory: /state/partition2/vallet/1073343.phlam-s-sakura/amstmp_terpy.pbe0-d3bj-gp.x2c-sr_kid0.66028868/


 Communication costs MPI_COMM_WORLD:      2.648 usec per message,   0.0381 usec per 8-byte item
 Communication costs for intra-node:      0.392 usec per message,   0.0039 usec per 8-byte item

 RNG seed: 1884819198 856713855 -1169615252 -948874876 1924083268 2045914016 439935141 -178957457



                      ************************************************************************
                      *  ADF 2025.104  RunTime: Nov13-2025 11:53:08  ShM Nodes: 4  Procs: 8  *
                      ************************************************************************
  

       ****************************
       * SINGLE POINT CALCULATION *
       ****************************
 
--------
Geometry
--------
Formula: C15H11N3
Atoms
  Index Symbol   x (angstrom)   y (angstrom)   z (angstrom)
      1      N     0.12442300    -0.00000000    -0.12625600
      2      C     0.15852300    -0.00000000     1.20113400
      3      C     1.33450600    -0.00000000     1.93710200
      4      C     2.53605600    -0.00000000     1.24611600
      5      C     2.51351100    -0.00000000    -0.13738600
      6      C     1.28315000    -0.00000000    -0.79109700
      7      H    -0.80313500    -0.00000000     1.70686500
      8      H     1.30283800    -0.00000000     3.01964500
      9      H     3.48054100    -0.00000000     1.77829800
     10      H     3.42660100     0.00000000    -0.71683500
     11      C     1.21039400    -0.00000000    -2.27361300
     12      C    -0.01818800    -0.00000000    -2.93105800
     13      C    -0.02548700    -0.00000000    -4.31471500
     14      C     1.17644500    -0.00000000    -5.00022200
     15      C     2.36010000     0.00000000    -4.26496200
     16      N     2.36644500     0.00000000    -2.93373200
     17      H    -0.93496800    -0.00000000    -2.35818600
     18      H    -0.96433000    -0.00000000    -4.85675600
     19      H     1.21417700    -0.00000000    -6.08061300
     20      C     3.68037400     0.00000000    -4.94321100
     21      C     4.86168500     0.00000000    -4.20454300
     22      C     6.07110500     0.00000000    -4.87676900
     23      C     6.06874200     0.00000000    -6.26283500
     24      C     4.84338300     0.00000000    -6.91328300
     25      N     3.67678000     0.00000000    -6.27911900
     26      H     4.81641200     0.00000000    -3.12405900
     27      H     7.00423100     0.00000000    -4.32491200
     28      H     6.99041700     0.00000000    -6.83153200
     29      H     4.80053000     0.00000000    -7.99896800
 
Total System Charge             0.00000
Bonding info available!
 
 
----------------
ADF Engine Input
----------------
 
 Basis
 Type TZ2P
 Core None
 End
 XC
 Hybrid PBE0
 DISPERSION Grimme3 BJDAMP
 End
 Relativity
 Formalism X2C
 End
 NumericalQuality Good
 

 Title: *** (NO TITLE) ***

 *** adf ***



 ===========================
 A T T A C H E D   F I L E S
 ===========================
  



 ===============================
 M O D E L   P A R A M E T E R S
 ===============================
  
 DENSITY FUNCTIONAL POTENTIAL (scf)
    Hybrid:                            PBE0                                    == Not Default ==

 SPIN  (restricted / unrestr.)
    Molecule:                          Restricted                               
    Fragments:                         Restricted                               

 OTHER ASPECTS
    Relativistic Corrections:          scalar (X2C,MAPA)                       == Not Default ==

    Nuclear Charge Density Model:      Point Charge Nuclei                      
    Core Treatment:                    Frozen Orbital(s)                        

    Hyperfine or Zeeman Interaction:   ---                                      

 Settings for Grimme D3 dispersion correction

      damping                        BJ
      s6                          1.000
      s8                          1.218
      a1                          0.414
      a2                          4.859

 Other (technical) parameters

      alpha                      14.000
      version                         4
 
 WARNING: Atom coordinates do not satisfy full symmetry (probably due to orientation).


 Fragment File(s)
 ----------------
 N:
         file : /home/vallet/ANL/ANL-UVI-structures-Emily/terpy/X2C-SO/terpy.pbe0-d3bj-gp.x2c-sr.results/t21.82C05A2.N
         jobid: 0
         title: Nitrogen (TZ2P)
 C:
         file : /home/vallet/ANL/ANL-UVI-structures-Emily/terpy/X2C-SO/terpy.pbe0-d3bj-gp.x2c-sr.results/t21.214C3654.C
         jobid: 0
         title: Carbon (TZ2P)
 H:
         file : /home/vallet/ANL/ANL-UVI-structures-Emily/terpy/X2C-SO/terpy.pbe0-d3bj-gp.x2c-sr.results/t21.FC7E34C.H
         jobid: 0
         title: Hydrogen (TZ2P)



 ===============
 G E O M E T R Y  ***  Planar Molecule  ***
 ===============
  

 ATOMS
 =====                            X Y Z                    CHARGE
                                (Angstrom)             Nucl     +Core       At.Mass
                       --------------------------    ----------------       -------
    1  N               0.1244    0.0000   -0.1263      7.00      7.00       14.0031
    2  C               0.1585    0.0000    1.2011      6.00      6.00       12.0000
    3  C               1.3345    0.0000    1.9371      6.00      6.00       12.0000
    4  C               2.5361    0.0000    1.2461      6.00      6.00       12.0000
    5  C               2.5135    0.0000   -0.1374      6.00      6.00       12.0000
    6  C               1.2832    0.0000   -0.7911      6.00      6.00       12.0000
    7  H              -0.8031    0.0000    1.7069      1.00      1.00        1.0078
    8  H               1.3028    0.0000    3.0196      1.00      1.00        1.0078
    9  H               3.4805    0.0000    1.7783      1.00      1.00        1.0078
   10  H               3.4266    0.0000   -0.7168      1.00      1.00        1.0078
   11  C               1.2104    0.0000   -2.2736      6.00      6.00       12.0000
   12  C              -0.0182   -0.0000   -2.9311      6.00      6.00       12.0000
   13  C              -0.0255   -0.0000   -4.3147      6.00      6.00       12.0000
   14  C               1.1764    0.0000   -5.0002      6.00      6.00       12.0000
   15  C               2.3601    0.0000   -4.2650      6.00      6.00       12.0000
   16  N               2.3664    0.0000   -2.9337      7.00      7.00       14.0031
   17  H              -0.9350   -0.0000   -2.3582      1.00      1.00        1.0078
   18  H              -0.9643   -0.0000   -4.8568      1.00      1.00        1.0078
   19  H               1.2142    0.0000   -6.0806      1.00      1.00        1.0078
   20  C               3.6804    0.0000   -4.9432      6.00      6.00       12.0000
   21  C               4.8617    0.0000   -4.2045      6.00      6.00       12.0000
   22  C               6.0711    0.0000   -4.8768      6.00      6.00       12.0000
   23  C               6.0687    0.0000   -6.2628      6.00      6.00       12.0000
   24  C               4.8434    0.0000   -6.9133      6.00      6.00       12.0000
   25  N               3.6768    0.0000   -6.2791      7.00      7.00       14.0031
   26  H               4.8164    0.0000   -3.1241      1.00      1.00        1.0078
   27  H               7.0042    0.0000   -4.3249      1.00      1.00        1.0078
   28  H               6.9904    0.0000   -6.8315      1.00      1.00        1.0078
   29  H               4.8005    0.0000   -7.9990      1.00      1.00        1.0078


 FRAGMENTS
 =========                                     Atoms in this Fragment     Cart. coord.s (Angstrom)
                                               -------------------------------------------------------
    1  N                                                 1  N            0.1244    0.0000   -0.1263
    2  N                                                16  N            2.3664    0.0000   -2.9337
    3  N                                                25  N            3.6768    0.0000   -6.2791
    4  C                                                 2  C            0.1585    0.0000    1.2011
    5  C                                                 3  C            1.3345    0.0000    1.9371
    6  C                                                 4  C            2.5361    0.0000    1.2461
    7  C                                                 5  C            2.5135    0.0000   -0.1374
    8  C                                                 6  C            1.2832    0.0000   -0.7911
    9  C                                                11  C            1.2104    0.0000   -2.2736
   10  C                                                12  C           -0.0182   -0.0000   -2.9311
   11  C                                                13  C           -0.0255   -0.0000   -4.3147
   12  C                                                14  C            1.1764    0.0000   -5.0002
   13  C                                                15  C            2.3601    0.0000   -4.2650
   14  C                                                20  C            3.6804    0.0000   -4.9432
   15  C                                                21  C            4.8617    0.0000   -4.2045
   16  C                                                22  C            6.0711    0.0000   -4.8768
   17  C                                                23  C            6.0687    0.0000   -6.2628
   18  C                                                24  C            4.8434    0.0000   -6.9133
   19  H                                                 7  H           -0.8031    0.0000    1.7069
   20  H                                                 8  H            1.3028    0.0000    3.0196
   21  H                                                 9  H            3.4805    0.0000    1.7783
   22  H                                                10  H            3.4266    0.0000   -0.7168
   23  H                                                17  H           -0.9350   -0.0000   -2.3582
   24  H                                                18  H           -0.9643   -0.0000   -4.8568
   25  H                                                19  H            1.2142    0.0000   -6.0806
   26  H                                                26  H            4.8164    0.0000   -3.1241
   27  H                                                27  H            7.0042    0.0000   -4.3249
   28  H                                                28  H            6.9904    0.0000   -6.8315
   29  H                                                29  H            4.8005    0.0000   -7.9990



 =====================================
 S Y M M E T R Y ,   E L E C T R O N S
 =====================================
  
 Symmetry: NOSYM

 Irreducible Representations, including subspecies
 -------------------------------------------------
 A

 Symmetry is NOT used when fitting density


 Configuration of Valence Electrons
 ==================================
 ( determined in the SCF procedure )

 Total:   122

 Net Charge: 0 (Nuclei minus Electrons)

 Aufbau principle for MO occupations will be applied through SCF cycle no.     150
 Thereafter, the program will assign electrons to MOs that are spatially
 similar to the occupied MOs in a "reference" cycle ("KeepOrbitals").
 The reference cycle is always the PREVIOUS cycle: it will evolve with
 the SCF procedure.
 ***************************************************************************************************



                                      ****************************************
                                      *  B U I L D : (Fragments, Functions)  *
                                      ****************************************
  



 =======
 S F O s  ***  (Symmetrized Fragment Orbitals)  ***
 =======
  
 SFOs are linear combinations of (valence) Fragment Orbitals (FOs), such that the SFOs transform as the
 irreducible representations of the (molecular) symmetry group. Each SFO is therefore characterized by
 an irrep of the molecule and by a few (or only one) generating FOs.
 The SFOs constitute a symmetry-adapted basis for the Fock matrix. The MO eigenvector coefficients in
 this basis provide a direct interpretation of the MOs in terms of Frontier Orbital Theory.

 The SFOs are combined with auxiliary Core Functions (CFs) to ensure orthogonalization on the (frozen)
 Core Orbitals (COs). The Core-orthogonalized SFOs (CSFOs) constitute the true Fock basis.

 The FOs, and hence also the (C)SFOs are combinations of the elementary basis functions (BAS). The basis
 functions that participate in the description of the SFOs depend on the irrep. The indices of the
 involved functions are printed below for each irrep.
 (The complete list of primitive basis functions is printed in another section)

 Total nr. of (C)SFOs (summation over all irreps) :   589

 NOTE: a (C)SFO that is defined as a combination of more than one FO is usually NOT normalized.



                                       === A ===
 Nr. of SFOs :  589
 Cartesian basis functions that participate in this irrep (total number =   672) :
      1     2     3     4     5     6     9    12     7    10
     13     8    11    14    15    16    17    18    19    20
     21    22    23    24    25    26    27    28    29    30
     31    32    33    34    35    36    39    42    37    40
     43    38    41    44    45    46    47    48    49    50
     51    52    53    54    55    56    57    58    59    60
     61    62    63    64    65    66    69    72    67    70
     73    68    71    74    75    76    77    78    79    80
     81    82    83    84    85    86    87    88    89    90
     91    92    93    94    95    96    99   102    97   100
    103    98   101   104   105   106   107   108   109   110
    111   112   113   114   115   116   117   118   119   120
    121   122   123   124   125   126   129   132   127   130
    133   128   131   134   135   136   137   138   139   140
    141   142   143   144   145   146   147   148   149   150
    151   152   153   154   155   156   159   162   157   160
    163   158   161   164   165   166   167   168   169   170
    171   172   173   174   175   176   177   178   179   180
    181   182   183   184   185   186   189   192   187   190
    193   188   191   194   195   196   197   198   199   200
    201   202   203   204   205   206   207   208   209   210
    211   212   213   214   215   216   219   222   217   220
    223   218   221   224   225   226   227   228   229   230
    231   232   233   234   235   236   237   238   239   240
    241   242   243   244   245   246   249   252   247   250
    253   248   251   254   255   256   257   258   259   260
    261   262   263   264   265   266   267   268   269   270
    271   272   273   274   275   276   279   282   277   280
    283   278   281   284   285   286   287   288   289   290
    291   292   293   294   295   296   297   298   299   300
    301   302   303   304   305   306   309   312   307   310
    313   308   311   314   315   316   317   318   319   320
    321   322   323   324   325   326   327   328   329   330
    331   332   333   334   335   336   339   342   337   340
    343   338   341   344   345   346   347   348   349   350
    351   352   353   354   355   356   357   358   359   360
    361   362   363   364   365   366   369   372   367   370
    373   368   371   374   375   376   377   378   379   380
    381   382   383   384   385   386   387   388   389   390
    391   392   393   394   395   396   399   402   397   400
    403   398   401   404   405   406   407   408   409   410
    411   412   413   414   415   416   417   418   419   420
    421   422   423   424   425   426   429   432   427   430
    433   428   431   434   435   436   437   438   439   440
    441   442   443   444   445   446   447   448   449   450
    451   452   453   454   455   456   459   462   457   460
    463   458   461   464   465   466   467   468   469   470
    471   472   473   474   475   476   477   478   479   480
    481   482   483   484   485   486   489   492   487   490
    493   488   491   494   495   496   497   498   499   500
    501   502   503   504   505   506   507   508   509   510
    511   512   513   514   515   516   519   522   517   520
    523   518   521   524   525   526   527   528   529   530
    531   532   533   534   535   536   537   538   539   540
    541   542   543   544   545   546   547   548   549   550
    551   552   553   554   555   556   557   558   559   560
    561   562   563   564   565   566   567   568   569   570
    571   572   573   574   575   576   577   578   579   580
    581   582   583   584   585   586   587   588   589   590
    591   592   593   594   595   596   597   598   599   600
    601   602   603   604   605   606   607   608   609   610
    611   612   613   614   615   616   617   618   619   620
    621   622   623   624   625   626   627   628   629   630
    631   632   633   634   635   636   637   638   639   640
    641   642   643   644   645   646   647   648   649   650
    651   652   653   654   655   656   657   658   659   660
    661   662   663   664   665   666   667   668   669   670
    671   672

    SFO  (index         Fragment          Generating    Expansion in Fragment Orbitals
  indx  incl.CFs)   Occup   Orb.Energy   FragmentType  Coeff.   Orbital     on Fragment
 --------------------------------------------------------------------------------------
     1       1      2.000     -14.564 au  N             1.00      1 S               1
                        (    -396.299 eV)
     2       2      2.000      -0.781 au  N             1.00      2 S               1
                        (     -21.259 eV)
     3       3       --         0.567 au  N             1.00      3 S               1
                        (      15.427 eV)
     4       4       --         7.036 au  N             1.00      4 S               1
                        (     191.468 eV)
     5       5       --        64.014 au  N             1.00      5 S               1
                        (    1741.899 eV)
     6       6      1.000      -0.270 au  N             1.00      1 P:x             1
                        (      -7.353 eV)
     7       7       --         0.326 au  N             1.00      2 P:x             1
                        (       8.878 eV)
     8       8       --         3.416 au  N             1.00      3 P:x             1
                        (      92.956 eV)
     9       9      1.000      -0.270 au  N             1.00      1 P:y             1
                        (      -7.353 eV)
    10      10       --         0.326 au  N             1.00      2 P:y             1
                        (       8.878 eV)
    11      11       --         3.416 au  N             1.00      3 P:y             1
                        (      92.956 eV)
    12      12      1.000      -0.270 au  N             1.00      1 P:z             1
                        (      -7.353 eV)
    13      13       --         0.326 au  N             1.00      2 P:z             1
                        (       8.878 eV)
    14      14       --         3.416 au  N             1.00      3 P:z             1
                        (      92.956 eV)
    15      15       --         1.308 au  N             1.00      1 D:z2            1
                        (      35.586 eV)
    16      16       --         1.308 au  N             1.00      1 D:x2-y2         1
                        (      35.586 eV)
    17      17       --         1.308 au  N             1.00      1 D:xy            1
                        (      35.586 eV)
    18      18       --         1.308 au  N             1.00      1 D:xz            1
                        (      35.586 eV)
    19      19       --         1.308 au  N             1.00      1 D:yz            1
                        (      35.586 eV)
    20      20       --         4.100 au  N             1.00      1 F:z3            1
                        (     111.558 eV)
    21      21       --         4.100 au  N             1.00      1 F:z             1
                        (     111.558 eV)
    22      22       --         4.100 au  N             1.00      1 F:xyz           1
                        (     111.558 eV)
    23      23       --         4.100 au  N             1.00      1 F:z2x           1
                        (     111.558 eV)
    24      24       --         4.100 au  N             1.00      1 F:z2y           1
                        (     111.558 eV)
    25      25       --         4.100 au  N             1.00      1 F:x             1
                        (     111.558 eV)
    26      26       --         4.100 au  N             1.00      1 F:y             1
                        (     111.558 eV)
    27      27      2.000     -14.564 au  N             1.00      1 S               2
                        (    -396.299 eV)
    28      28      2.000      -0.781 au  N             1.00      2 S               2
                        (     -21.259 eV)
    29      29       --         0.567 au  N             1.00      3 S               2
                        (      15.427 eV)
    30      30       --         7.036 au  N             1.00      4 S               2
                        (     191.468 eV)
    31      31       --        64.014 au  N             1.00      5 S               2
                        (    1741.899 eV)
    32      32      1.000      -0.270 au  N             1.00      1 P:x             2
                        (      -7.353 eV)
    33      33       --         0.326 au  N             1.00      2 P:x             2
                        (       8.878 eV)
    34      34       --         3.416 au  N             1.00      3 P:x             2
                        (      92.956 eV)
    35      35      1.000      -0.270 au  N             1.00      1 P:y             2
                        (      -7.353 eV)
    36      36       --         0.326 au  N             1.00      2 P:y             2
                        (       8.878 eV)
    37      37       --         3.416 au  N             1.00      3 P:y             2
                        (      92.956 eV)
    38      38      1.000      -0.270 au  N             1.00      1 P:z             2
                        (      -7.353 eV)
    39      39       --         0.326 au  N             1.00      2 P:z             2
                        (       8.878 eV)
    40      40       --         3.416 au  N             1.00      3 P:z             2
                        (      92.956 eV)
    41      41       --         1.308 au  N             1.00      1 D:z2            2
                        (      35.586 eV)
    42      42       --         1.308 au  N             1.00      1 D:x2-y2         2
                        (      35.586 eV)
    43      43       --         1.308 au  N             1.00      1 D:xy            2
                        (      35.586 eV)
    44      44       --         1.308 au  N             1.00      1 D:xz            2
                        (      35.586 eV)
    45      45       --         1.308 au  N             1.00      1 D:yz            2
                        (      35.586 eV)
    46      46       --         4.100 au  N             1.00      1 F:z3            2
                        (     111.558 eV)
    47      47       --         4.100 au  N             1.00      1 F:z             2
                        (     111.558 eV)
    48      48       --         4.100 au  N             1.00      1 F:xyz           2
                        (     111.558 eV)
    49      49       --         4.100 au  N             1.00      1 F:z2x           2
                        (     111.558 eV)
    50      50       --         4.100 au  N             1.00      1 F:z2y           2
                        (     111.558 eV)
    51      51       --         4.100 au  N             1.00      1 F:x             2
                        (     111.558 eV)
    52      52       --         4.100 au  N             1.00      1 F:y             2
                        (     111.558 eV)
    53      53      2.000     -14.564 au  N             1.00      1 S               3
                        (    -396.299 eV)
    54      54      2.000      -0.781 au  N             1.00      2 S               3
                        (     -21.259 eV)
    55      55       --         0.567 au  N             1.00      3 S               3
                        (      15.427 eV)
    56      56       --         7.036 au  N             1.00      4 S               3
                        (     191.468 eV)
    57      57       --        64.014 au  N             1.00      5 S               3
                        (    1741.899 eV)
    58      58      1.000      -0.270 au  N             1.00      1 P:x             3
                        (      -7.353 eV)
    59      59       --         0.326 au  N             1.00      2 P:x             3
                        (       8.878 eV)
    60      60       --         3.416 au  N             1.00      3 P:x             3
                        (      92.956 eV)
    61      61      1.000      -0.270 au  N             1.00      1 P:y             3
                        (      -7.353 eV)
    62      62       --         0.326 au  N             1.00      2 P:y             3
                        (       8.878 eV)
    63      63       --         3.416 au  N             1.00      3 P:y             3
                        (      92.956 eV)
    64      64      1.000      -0.270 au  N             1.00      1 P:z             3
                        (      -7.353 eV)
    65      65       --         0.326 au  N             1.00      2 P:z             3
                        (       8.878 eV)
    66      66       --         3.416 au  N             1.00      3 P:z             3
                        (      92.956 eV)
    67      67       --         1.308 au  N             1.00      1 D:z2            3
                        (      35.586 eV)
    68      68       --         1.308 au  N             1.00      1 D:x2-y2         3
                        (      35.586 eV)
    69      69       --         1.308 au  N             1.00      1 D:xy            3
                        (      35.586 eV)
    70      70       --         1.308 au  N             1.00      1 D:xz            3
                        (      35.586 eV)
    71      71       --         1.308 au  N             1.00      1 D:yz            3
                        (      35.586 eV)
    72      72       --         4.100 au  N             1.00      1 F:z3            3
                        (     111.558 eV)
    73      73       --         4.100 au  N             1.00      1 F:z             3
                        (     111.558 eV)
    74      74       --         4.100 au  N             1.00      1 F:xyz           3
                        (     111.558 eV)
    75      75       --         4.100 au  N             1.00      1 F:z2x           3
                        (     111.558 eV)
    76      76       --         4.100 au  N             1.00      1 F:z2y           3
                        (     111.558 eV)
    77      77       --         4.100 au  N             1.00      1 F:x             3
                        (     111.558 eV)
    78      78       --         4.100 au  N             1.00      1 F:y             3
                        (     111.558 eV)
    79      79      2.000     -10.410 au  C             1.00      1 S               4
                        (    -283.268 eV)
    80      80      2.000      -0.583 au  C             1.00      2 S               4
                        (     -15.871 eV)
    81      81       --         0.414 au  C             1.00      3 S               4
                        (      11.266 eV)
    82      82       --         5.548 au  C             1.00      4 S               4
                        (     150.975 eV)
    83      83       --        50.362 au  C             1.00      5 S               4
                        (    1370.412 eV)
    84      84      0.667      -0.185 au  C             1.00      1 P:x             4
                        (      -5.048 eV)
    85      85       --         0.203 au  C             1.00      2 P:x             4
                        (       5.519 eV)
    86      86       --         2.124 au  C             1.00      3 P:x             4
                        (      57.805 eV)
    87      87      0.667      -0.185 au  C             1.00      1 P:y             4
                        (      -5.048 eV)
    88      88       --         0.203 au  C             1.00      2 P:y             4
                        (       5.519 eV)
    89      89       --         2.124 au  C             1.00      3 P:y             4
                        (      57.805 eV)
    90      90      0.667      -0.185 au  C             1.00      1 P:z             4
                        (      -5.048 eV)
    91      91       --         0.203 au  C             1.00      2 P:z             4
                        (       5.519 eV)
    92      92       --         2.124 au  C             1.00      3 P:z             4
                        (      57.805 eV)
    93      93       --         1.300 au  C             1.00      1 D:z2            4
                        (      35.364 eV)
    94      94       --         1.300 au  C             1.00      1 D:x2-y2         4
                        (      35.364 eV)
    95      95       --         1.300 au  C             1.00      1 D:xy            4
                        (      35.364 eV)
    96      96       --         1.300 au  C             1.00      1 D:xz            4
                        (      35.364 eV)
    97      97       --         1.300 au  C             1.00      1 D:yz            4
                        (      35.364 eV)
    98      98       --         4.096 au  C             1.00      1 F:z3            4
                        (     111.471 eV)
    99      99       --         4.096 au  C             1.00      1 F:z             4
                        (     111.471 eV)
   100     100       --         4.096 au  C             1.00      1 F:xyz           4
                        (     111.471 eV)
   101     101       --         4.096 au  C             1.00      1 F:z2x           4
                        (     111.471 eV)
   102     102       --         4.096 au  C             1.00      1 F:z2y           4
                        (     111.471 eV)
   103     103       --         4.096 au  C             1.00      1 F:x             4
                        (     111.471 eV)
   104     104       --         4.096 au  C             1.00      1 F:y             4
                        (     111.471 eV)
   105     105      2.000     -10.410 au  C             1.00      1 S               5
                        (    -283.268 eV)
   106     106      2.000      -0.583 au  C             1.00      2 S               5
                        (     -15.871 eV)
   107     107       --         0.414 au  C             1.00      3 S               5
                        (      11.266 eV)
   108     108       --         5.548 au  C             1.00      4 S               5
                        (     150.975 eV)
   109     109       --        50.362 au  C             1.00      5 S               5
                        (    1370.412 eV)
   110     110      0.667      -0.185 au  C             1.00      1 P:x             5
                        (      -5.048 eV)
   111     111       --         0.203 au  C             1.00      2 P:x             5
                        (       5.519 eV)
   112     112       --         2.124 au  C             1.00      3 P:x             5
                        (      57.805 eV)
   113     113      0.667      -0.185 au  C             1.00      1 P:y             5
                        (      -5.048 eV)
   114     114       --         0.203 au  C             1.00      2 P:y             5
                        (       5.519 eV)
   115     115       --         2.124 au  C             1.00      3 P:y             5
                        (      57.805 eV)
   116     116      0.667      -0.185 au  C             1.00      1 P:z             5
                        (      -5.048 eV)
   117     117       --         0.203 au  C             1.00      2 P:z             5
                        (       5.519 eV)
   118     118       --         2.124 au  C             1.00      3 P:z             5
                        (      57.805 eV)
   119     119       --         1.300 au  C             1.00      1 D:z2            5
                        (      35.364 eV)
   120     120       --         1.300 au  C             1.00      1 D:x2-y2         5
                        (      35.364 eV)
   121     121       --         1.300 au  C             1.00      1 D:xy            5
                        (      35.364 eV)
   122     122       --         1.300 au  C             1.00      1 D:xz            5
                        (      35.364 eV)
   123     123       --         1.300 au  C             1.00      1 D:yz            5
                        (      35.364 eV)
   124     124       --         4.096 au  C             1.00      1 F:z3            5
                        (     111.471 eV)
   125     125       --         4.096 au  C             1.00      1 F:z             5
                        (     111.471 eV)
   126     126       --         4.096 au  C             1.00      1 F:xyz           5
                        (     111.471 eV)
   127     127       --         4.096 au  C             1.00      1 F:z2x           5
                        (     111.471 eV)
   128     128       --         4.096 au  C             1.00      1 F:z2y           5
                        (     111.471 eV)
   129     129       --         4.096 au  C             1.00      1 F:x             5
                        (     111.471 eV)
   130     130       --         4.096 au  C             1.00      1 F:y             5
                        (     111.471 eV)
   131     131      2.000     -10.410 au  C             1.00      1 S               6
                        (    -283.268 eV)
   132     132      2.000      -0.583 au  C             1.00      2 S               6
                        (     -15.871 eV)
   133     133       --         0.414 au  C             1.00      3 S               6
                        (      11.266 eV)
   134     134       --         5.548 au  C             1.00      4 S               6
                        (     150.975 eV)
   135     135       --        50.362 au  C             1.00      5 S               6
                        (    1370.412 eV)
   136     136      0.667      -0.185 au  C             1.00      1 P:x             6
                        (      -5.048 eV)
   137     137       --         0.203 au  C             1.00      2 P:x             6
                        (       5.519 eV)
   138     138       --         2.124 au  C             1.00      3 P:x             6
                        (      57.805 eV)
   139     139      0.667      -0.185 au  C             1.00      1 P:y             6
                        (      -5.048 eV)
   140     140       --         0.203 au  C             1.00      2 P:y             6
                        (       5.519 eV)
   141     141       --         2.124 au  C             1.00      3 P:y             6
                        (      57.805 eV)
   142     142      0.667      -0.185 au  C             1.00      1 P:z             6
                        (      -5.048 eV)
   143     143       --         0.203 au  C             1.00      2 P:z             6
                        (       5.519 eV)
   144     144       --         2.124 au  C             1.00      3 P:z             6
                        (      57.805 eV)
   145     145       --         1.300 au  C             1.00      1 D:z2            6
                        (      35.364 eV)
   146     146       --         1.300 au  C             1.00      1 D:x2-y2         6
                        (      35.364 eV)
   147     147       --         1.300 au  C             1.00      1 D:xy            6
                        (      35.364 eV)
   148     148       --         1.300 au  C             1.00      1 D:xz            6
                        (      35.364 eV)
   149     149       --         1.300 au  C             1.00      1 D:yz            6
                        (      35.364 eV)
   150     150       --         4.096 au  C             1.00      1 F:z3            6
                        (     111.471 eV)
   151     151       --         4.096 au  C             1.00      1 F:z             6
                        (     111.471 eV)
   152     152       --         4.096 au  C             1.00      1 F:xyz           6
                        (     111.471 eV)
   153     153       --         4.096 au  C             1.00      1 F:z2x           6
                        (     111.471 eV)
   154     154       --         4.096 au  C             1.00      1 F:z2y           6
                        (     111.471 eV)
   155     155       --         4.096 au  C             1.00      1 F:x             6
                        (     111.471 eV)
   156     156       --         4.096 au  C             1.00      1 F:y             6
                        (     111.471 eV)
   157     157      2.000     -10.410 au  C             1.00      1 S               7
                        (    -283.268 eV)
   158     158      2.000      -0.583 au  C             1.00      2 S               7
                        (     -15.871 eV)
   159     159       --         0.414 au  C             1.00      3 S               7
                        (      11.266 eV)
   160     160       --         5.548 au  C             1.00      4 S               7
                        (     150.975 eV)
   161     161       --        50.362 au  C             1.00      5 S               7
                        (    1370.412 eV)
   162     162      0.667      -0.185 au  C             1.00      1 P:x             7
                        (      -5.048 eV)
   163     163       --         0.203 au  C             1.00      2 P:x             7
                        (       5.519 eV)
   164     164       --         2.124 au  C             1.00      3 P:x             7
                        (      57.805 eV)
   165     165      0.667      -0.185 au  C             1.00      1 P:y             7
                        (      -5.048 eV)
   166     166       --         0.203 au  C             1.00      2 P:y             7
                        (       5.519 eV)
   167     167       --         2.124 au  C             1.00      3 P:y             7
                        (      57.805 eV)
   168     168      0.667      -0.185 au  C             1.00      1 P:z             7
                        (      -5.048 eV)
   169     169       --         0.203 au  C             1.00      2 P:z             7
                        (       5.519 eV)
   170     170       --         2.124 au  C             1.00      3 P:z             7
                        (      57.805 eV)
   171     171       --         1.300 au  C             1.00      1 D:z2            7
                        (      35.364 eV)
   172     172       --         1.300 au  C             1.00      1 D:x2-y2         7
                        (      35.364 eV)
   173     173       --         1.300 au  C             1.00      1 D:xy            7
                        (      35.364 eV)
   174     174       --         1.300 au  C             1.00      1 D:xz            7
                        (      35.364 eV)
   175     175       --         1.300 au  C             1.00      1 D:yz            7
                        (      35.364 eV)
   176     176       --         4.096 au  C             1.00      1 F:z3            7
                        (     111.471 eV)
   177     177       --         4.096 au  C             1.00      1 F:z             7
                        (     111.471 eV)
   178     178       --         4.096 au  C             1.00      1 F:xyz           7
                        (     111.471 eV)
   179     179       --         4.096 au  C             1.00      1 F:z2x           7
                        (     111.471 eV)
   180     180       --         4.096 au  C             1.00      1 F:z2y           7
                        (     111.471 eV)
   181     181       --         4.096 au  C             1.00      1 F:x             7
                        (     111.471 eV)
   182     182       --         4.096 au  C             1.00      1 F:y             7
                        (     111.471 eV)
   183     183      2.000     -10.410 au  C             1.00      1 S               8
                        (    -283.268 eV)
   184     184      2.000      -0.583 au  C             1.00      2 S               8
                        (     -15.871 eV)
   185     185       --         0.414 au  C             1.00      3 S               8
                        (      11.266 eV)
   186     186       --         5.548 au  C             1.00      4 S               8
                        (     150.975 eV)
   187     187       --        50.362 au  C             1.00      5 S               8
                        (    1370.412 eV)
   188     188      0.667      -0.185 au  C             1.00      1 P:x             8
                        (      -5.048 eV)
   189     189       --         0.203 au  C             1.00      2 P:x             8
                        (       5.519 eV)
   190     190       --         2.124 au  C             1.00      3 P:x             8
                        (      57.805 eV)
   191     191      0.667      -0.185 au  C             1.00      1 P:y             8
                        (      -5.048 eV)
   192     192       --         0.203 au  C             1.00      2 P:y             8
                        (       5.519 eV)
   193     193       --         2.124 au  C             1.00      3 P:y             8
                        (      57.805 eV)
   194     194      0.667      -0.185 au  C             1.00      1 P:z             8
                        (      -5.048 eV)
   195     195       --         0.203 au  C             1.00      2 P:z             8
                        (       5.519 eV)
   196     196       --         2.124 au  C             1.00      3 P:z             8
                        (      57.805 eV)
   197     197       --         1.300 au  C             1.00      1 D:z2            8
                        (      35.364 eV)
   198     198       --         1.300 au  C             1.00      1 D:x2-y2         8
                        (      35.364 eV)
   199     199       --         1.300 au  C             1.00      1 D:xy            8
                        (      35.364 eV)
   200     200       --         1.300 au  C             1.00      1 D:xz            8
                        (      35.364 eV)
   201     201       --         1.300 au  C             1.00      1 D:yz            8
                        (      35.364 eV)
   202     202       --         4.096 au  C             1.00      1 F:z3            8
                        (     111.471 eV)
   203     203       --         4.096 au  C             1.00      1 F:z             8
                        (     111.471 eV)
   204     204       --         4.096 au  C             1.00      1 F:xyz           8
                        (     111.471 eV)
   205     205       --         4.096 au  C             1.00      1 F:z2x           8
                        (     111.471 eV)
   206     206       --         4.096 au  C             1.00      1 F:z2y           8
                        (     111.471 eV)
   207     207       --         4.096 au  C             1.00      1 F:x             8
                        (     111.471 eV)
   208     208       --         4.096 au  C             1.00      1 F:y             8
                        (     111.471 eV)
   209     209      2.000     -10.410 au  C             1.00      1 S               9
                        (    -283.268 eV)
   210     210      2.000      -0.583 au  C             1.00      2 S               9
                        (     -15.871 eV)
   211     211       --         0.414 au  C             1.00      3 S               9
                        (      11.266 eV)
   212     212       --         5.548 au  C             1.00      4 S               9
                        (     150.975 eV)
   213     213       --        50.362 au  C             1.00      5 S               9
                        (    1370.412 eV)
   214     214      0.667      -0.185 au  C             1.00      1 P:x             9
                        (      -5.048 eV)
   215     215       --         0.203 au  C             1.00      2 P:x             9
                        (       5.519 eV)
   216     216       --         2.124 au  C             1.00      3 P:x             9
                        (      57.805 eV)
   217     217      0.667      -0.185 au  C             1.00      1 P:y             9
                        (      -5.048 eV)
   218     218       --         0.203 au  C             1.00      2 P:y             9
                        (       5.519 eV)
   219     219       --         2.124 au  C             1.00      3 P:y             9
                        (      57.805 eV)
   220     220      0.667      -0.185 au  C             1.00      1 P:z             9
                        (      -5.048 eV)
   221     221       --         0.203 au  C             1.00      2 P:z             9
                        (       5.519 eV)
   222     222       --         2.124 au  C             1.00      3 P:z             9
                        (      57.805 eV)
   223     223       --         1.300 au  C             1.00      1 D:z2            9
                        (      35.364 eV)
   224     224       --         1.300 au  C             1.00      1 D:x2-y2         9
                        (      35.364 eV)
   225     225       --         1.300 au  C             1.00      1 D:xy            9
                        (      35.364 eV)
   226     226       --         1.300 au  C             1.00      1 D:xz            9
                        (      35.364 eV)
   227     227       --         1.300 au  C             1.00      1 D:yz            9
                        (      35.364 eV)
   228     228       --         4.096 au  C             1.00      1 F:z3            9
                        (     111.471 eV)
   229     229       --         4.096 au  C             1.00      1 F:z             9
                        (     111.471 eV)
   230     230       --         4.096 au  C             1.00      1 F:xyz           9
                        (     111.471 eV)
   231     231       --         4.096 au  C             1.00      1 F:z2x           9
                        (     111.471 eV)
   232     232       --         4.096 au  C             1.00      1 F:z2y           9
                        (     111.471 eV)
   233     233       --         4.096 au  C             1.00      1 F:x             9
                        (     111.471 eV)
   234     234       --         4.096 au  C             1.00      1 F:y             9
                        (     111.471 eV)
   235     235      2.000     -10.410 au  C             1.00      1 S              10
                        (    -283.268 eV)
   236     236      2.000      -0.583 au  C             1.00      2 S              10
                        (     -15.871 eV)
   237     237       --         0.414 au  C             1.00      3 S              10
                        (      11.266 eV)
   238     238       --         5.548 au  C             1.00      4 S              10
                        (     150.975 eV)
   239     239       --        50.362 au  C             1.00      5 S              10
                        (    1370.412 eV)
   240     240      0.667      -0.185 au  C             1.00      1 P:x            10
                        (      -5.048 eV)
   241     241       --         0.203 au  C             1.00      2 P:x            10
                        (       5.519 eV)
   242     242       --         2.124 au  C             1.00      3 P:x            10
                        (      57.805 eV)
   243     243      0.667      -0.185 au  C             1.00      1 P:y            10
                        (      -5.048 eV)
   244     244       --         0.203 au  C             1.00      2 P:y            10
                        (       5.519 eV)
   245     245       --         2.124 au  C             1.00      3 P:y            10
                        (      57.805 eV)
   246     246      0.667      -0.185 au  C             1.00      1 P:z            10
                        (      -5.048 eV)
   247     247       --         0.203 au  C             1.00      2 P:z            10
                        (       5.519 eV)
   248     248       --         2.124 au  C             1.00      3 P:z            10
                        (      57.805 eV)
   249     249       --         1.300 au  C             1.00      1 D:z2           10
                        (      35.364 eV)
   250     250       --         1.300 au  C             1.00      1 D:x2-y2        10
                        (      35.364 eV)
   251     251       --         1.300 au  C             1.00      1 D:xy           10
                        (      35.364 eV)
   252     252       --         1.300 au  C             1.00      1 D:xz           10
                        (      35.364 eV)
   253     253       --         1.300 au  C             1.00      1 D:yz           10
                        (      35.364 eV)
   254     254       --         4.096 au  C             1.00      1 F:z3           10
                        (     111.471 eV)
   255     255       --         4.096 au  C             1.00      1 F:z            10
                        (     111.471 eV)
   256     256       --         4.096 au  C             1.00      1 F:xyz          10
                        (     111.471 eV)
   257     257       --         4.096 au  C             1.00      1 F:z2x          10
                        (     111.471 eV)
   258     258       --         4.096 au  C             1.00      1 F:z2y          10
                        (     111.471 eV)
   259     259       --         4.096 au  C             1.00      1 F:x            10
                        (     111.471 eV)
   260     260       --         4.096 au  C             1.00      1 F:y            10
                        (     111.471 eV)
   261     261      2.000     -10.410 au  C             1.00      1 S              11
                        (    -283.268 eV)
   262     262      2.000      -0.583 au  C             1.00      2 S              11
                        (     -15.871 eV)
   263     263       --         0.414 au  C             1.00      3 S              11
                        (      11.266 eV)
   264     264       --         5.548 au  C             1.00      4 S              11
                        (     150.975 eV)
   265     265       --        50.362 au  C             1.00      5 S              11
                        (    1370.412 eV)
   266     266      0.667      -0.185 au  C             1.00      1 P:x            11
                        (      -5.048 eV)
   267     267       --         0.203 au  C             1.00      2 P:x            11
                        (       5.519 eV)
   268     268       --         2.124 au  C             1.00      3 P:x            11
                        (      57.805 eV)
   269     269      0.667      -0.185 au  C             1.00      1 P:y            11
                        (      -5.048 eV)
   270     270       --         0.203 au  C             1.00      2 P:y            11
                        (       5.519 eV)
   271     271       --         2.124 au  C             1.00      3 P:y            11
                        (      57.805 eV)
   272     272      0.667      -0.185 au  C             1.00      1 P:z            11
                        (      -5.048 eV)
   273     273       --         0.203 au  C             1.00      2 P:z            11
                        (       5.519 eV)
   274     274       --         2.124 au  C             1.00      3 P:z            11
                        (      57.805 eV)
   275     275       --         1.300 au  C             1.00      1 D:z2           11
                        (      35.364 eV)
   276     276       --         1.300 au  C             1.00      1 D:x2-y2        11
                        (      35.364 eV)
   277     277       --         1.300 au  C             1.00      1 D:xy           11
                        (      35.364 eV)
   278     278       --         1.300 au  C             1.00      1 D:xz           11
                        (      35.364 eV)
   279     279       --         1.300 au  C             1.00      1 D:yz           11
                        (      35.364 eV)
   280     280       --         4.096 au  C             1.00      1 F:z3           11
                        (     111.471 eV)
   281     281       --         4.096 au  C             1.00      1 F:z            11
                        (     111.471 eV)
   282     282       --         4.096 au  C             1.00      1 F:xyz          11
                        (     111.471 eV)
   283     283       --         4.096 au  C             1.00      1 F:z2x          11
                        (     111.471 eV)
   284     284       --         4.096 au  C             1.00      1 F:z2y          11
                        (     111.471 eV)
   285     285       --         4.096 au  C             1.00      1 F:x            11
                        (     111.471 eV)
   286     286       --         4.096 au  C             1.00      1 F:y            11
                        (     111.471 eV)
   287     287      2.000     -10.410 au  C             1.00      1 S              12
                        (    -283.268 eV)
   288     288      2.000      -0.583 au  C             1.00      2 S              12
                        (     -15.871 eV)
   289     289       --         0.414 au  C             1.00      3 S              12
                        (      11.266 eV)
   290     290       --         5.548 au  C             1.00      4 S              12
                        (     150.975 eV)
   291     291       --        50.362 au  C             1.00      5 S              12
                        (    1370.412 eV)
   292     292      0.667      -0.185 au  C             1.00      1 P:x            12
                        (      -5.048 eV)
   293     293       --         0.203 au  C             1.00      2 P:x            12
                        (       5.519 eV)
   294     294       --         2.124 au  C             1.00      3 P:x            12
                        (      57.805 eV)
   295     295      0.667      -0.185 au  C             1.00      1 P:y            12
                        (      -5.048 eV)
   296     296       --         0.203 au  C             1.00      2 P:y            12
                        (       5.519 eV)
   297     297       --         2.124 au  C             1.00      3 P:y            12
                        (      57.805 eV)
   298     298      0.667      -0.185 au  C             1.00      1 P:z            12
                        (      -5.048 eV)
   299     299       --         0.203 au  C             1.00      2 P:z            12
                        (       5.519 eV)
   300     300       --         2.124 au  C             1.00      3 P:z            12
                        (      57.805 eV)
   301     301       --         1.300 au  C             1.00      1 D:z2           12
                        (      35.364 eV)
   302     302       --         1.300 au  C             1.00      1 D:x2-y2        12
                        (      35.364 eV)
   303     303       --         1.300 au  C             1.00      1 D:xy           12
                        (      35.364 eV)
   304     304       --         1.300 au  C             1.00      1 D:xz           12
                        (      35.364 eV)
   305     305       --         1.300 au  C             1.00      1 D:yz           12
                        (      35.364 eV)
   306     306       --         4.096 au  C             1.00      1 F:z3           12
                        (     111.471 eV)
   307     307       --         4.096 au  C             1.00      1 F:z            12
                        (     111.471 eV)
   308     308       --         4.096 au  C             1.00      1 F:xyz          12
                        (     111.471 eV)
   309     309       --         4.096 au  C             1.00      1 F:z2x          12
                        (     111.471 eV)
   310     310       --         4.096 au  C             1.00      1 F:z2y          12
                        (     111.471 eV)
   311     311       --         4.096 au  C             1.00      1 F:x            12
                        (     111.471 eV)
   312     312       --         4.096 au  C             1.00      1 F:y            12
                        (     111.471 eV)
   313     313      2.000     -10.410 au  C             1.00      1 S              13
                        (    -283.268 eV)
   314     314      2.000      -0.583 au  C             1.00      2 S              13
                        (     -15.871 eV)
   315     315       --         0.414 au  C             1.00      3 S              13
                        (      11.266 eV)
   316     316       --         5.548 au  C             1.00      4 S              13
                        (     150.975 eV)
   317     317       --        50.362 au  C             1.00      5 S              13
                        (    1370.412 eV)
   318     318      0.667      -0.185 au  C             1.00      1 P:x            13
                        (      -5.048 eV)
   319     319       --         0.203 au  C             1.00      2 P:x            13
                        (       5.519 eV)
   320     320       --         2.124 au  C             1.00      3 P:x            13
                        (      57.805 eV)
   321     321      0.667      -0.185 au  C             1.00      1 P:y            13
                        (      -5.048 eV)
   322     322       --         0.203 au  C             1.00      2 P:y            13
                        (       5.519 eV)
   323     323       --         2.124 au  C             1.00      3 P:y            13
                        (      57.805 eV)
   324     324      0.667      -0.185 au  C             1.00      1 P:z            13
                        (      -5.048 eV)
   325     325       --         0.203 au  C             1.00      2 P:z            13
                        (       5.519 eV)
   326     326       --         2.124 au  C             1.00      3 P:z            13
                        (      57.805 eV)
   327     327       --         1.300 au  C             1.00      1 D:z2           13
                        (      35.364 eV)
   328     328       --         1.300 au  C             1.00      1 D:x2-y2        13
                        (      35.364 eV)
   329     329       --         1.300 au  C             1.00      1 D:xy           13
                        (      35.364 eV)
   330     330       --         1.300 au  C             1.00      1 D:xz           13
                        (      35.364 eV)
   331     331       --         1.300 au  C             1.00      1 D:yz           13
                        (      35.364 eV)
   332     332       --         4.096 au  C             1.00      1 F:z3           13
                        (     111.471 eV)
   333     333       --         4.096 au  C             1.00      1 F:z            13
                        (     111.471 eV)
   334     334       --         4.096 au  C             1.00      1 F:xyz          13
                        (     111.471 eV)
   335     335       --         4.096 au  C             1.00      1 F:z2x          13
                        (     111.471 eV)
   336     336       --         4.096 au  C             1.00      1 F:z2y          13
                        (     111.471 eV)
   337     337       --         4.096 au  C             1.00      1 F:x            13
                        (     111.471 eV)
   338     338       --         4.096 au  C             1.00      1 F:y            13
                        (     111.471 eV)
   339     339      2.000     -10.410 au  C             1.00      1 S              14
                        (    -283.268 eV)
   340     340      2.000      -0.583 au  C             1.00      2 S              14
                        (     -15.871 eV)
   341     341       --         0.414 au  C             1.00      3 S              14
                        (      11.266 eV)
   342     342       --         5.548 au  C             1.00      4 S              14
                        (     150.975 eV)
   343     343       --        50.362 au  C             1.00      5 S              14
                        (    1370.412 eV)
   344     344      0.667      -0.185 au  C             1.00      1 P:x            14
                        (      -5.048 eV)
   345     345       --         0.203 au  C             1.00      2 P:x            14
                        (       5.519 eV)
   346     346       --         2.124 au  C             1.00      3 P:x            14
                        (      57.805 eV)
   347     347      0.667      -0.185 au  C             1.00      1 P:y            14
                        (      -5.048 eV)
   348     348       --         0.203 au  C             1.00      2 P:y            14
                        (       5.519 eV)
   349     349       --         2.124 au  C             1.00      3 P:y            14
                        (      57.805 eV)
   350     350      0.667      -0.185 au  C             1.00      1 P:z            14
                        (      -5.048 eV)
   351     351       --         0.203 au  C             1.00      2 P:z            14
                        (       5.519 eV)
   352     352       --         2.124 au  C             1.00      3 P:z            14
                        (      57.805 eV)
   353     353       --         1.300 au  C             1.00      1 D:z2           14
                        (      35.364 eV)
   354     354       --         1.300 au  C             1.00      1 D:x2-y2        14
                        (      35.364 eV)
   355     355       --         1.300 au  C             1.00      1 D:xy           14
                        (      35.364 eV)
   356     356       --         1.300 au  C             1.00      1 D:xz           14
                        (      35.364 eV)
   357     357       --         1.300 au  C             1.00      1 D:yz           14
                        (      35.364 eV)
   358     358       --         4.096 au  C             1.00      1 F:z3           14
                        (     111.471 eV)
   359     359       --         4.096 au  C             1.00      1 F:z            14
                        (     111.471 eV)
   360     360       --         4.096 au  C             1.00      1 F:xyz          14
                        (     111.471 eV)
   361     361       --         4.096 au  C             1.00      1 F:z2x          14
                        (     111.471 eV)
   362     362       --         4.096 au  C             1.00      1 F:z2y          14
                        (     111.471 eV)
   363     363       --         4.096 au  C             1.00      1 F:x            14
                        (     111.471 eV)
   364     364       --         4.096 au  C             1.00      1 F:y            14
                        (     111.471 eV)
   365     365      2.000     -10.410 au  C             1.00      1 S              15
                        (    -283.268 eV)
   366     366      2.000      -0.583 au  C             1.00      2 S              15
                        (     -15.871 eV)
   367     367       --         0.414 au  C             1.00      3 S              15
                        (      11.266 eV)
   368     368       --         5.548 au  C             1.00      4 S              15
                        (     150.975 eV)
   369     369       --        50.362 au  C             1.00      5 S              15
                        (    1370.412 eV)
   370     370      0.667      -0.185 au  C             1.00      1 P:x            15
                        (      -5.048 eV)
   371     371       --         0.203 au  C             1.00      2 P:x            15
                        (       5.519 eV)
   372     372       --         2.124 au  C             1.00      3 P:x            15
                        (      57.805 eV)
   373     373      0.667      -0.185 au  C             1.00      1 P:y            15
                        (      -5.048 eV)
   374     374       --         0.203 au  C             1.00      2 P:y            15
                        (       5.519 eV)
   375     375       --         2.124 au  C             1.00      3 P:y            15
                        (      57.805 eV)
   376     376      0.667      -0.185 au  C             1.00      1 P:z            15
                        (      -5.048 eV)
   377     377       --         0.203 au  C             1.00      2 P:z            15
                        (       5.519 eV)
   378     378       --         2.124 au  C             1.00      3 P:z            15
                        (      57.805 eV)
   379     379       --         1.300 au  C             1.00      1 D:z2           15
                        (      35.364 eV)
   380     380       --         1.300 au  C             1.00      1 D:x2-y2        15
                        (      35.364 eV)
   381     381       --         1.300 au  C             1.00      1 D:xy           15
                        (      35.364 eV)
   382     382       --         1.300 au  C             1.00      1 D:xz           15
                        (      35.364 eV)
   383     383       --         1.300 au  C             1.00      1 D:yz           15
                        (      35.364 eV)
   384     384       --         4.096 au  C             1.00      1 F:z3           15
                        (     111.471 eV)
   385     385       --         4.096 au  C             1.00      1 F:z            15
                        (     111.471 eV)
   386     386       --         4.096 au  C             1.00      1 F:xyz          15
                        (     111.471 eV)
   387     387       --         4.096 au  C             1.00      1 F:z2x          15
                        (     111.471 eV)
   388     388       --         4.096 au  C             1.00      1 F:z2y          15
                        (     111.471 eV)
   389     389       --         4.096 au  C             1.00      1 F:x            15
                        (     111.471 eV)
   390     390       --         4.096 au  C             1.00      1 F:y            15
                        (     111.471 eV)
   391     391      2.000     -10.410 au  C             1.00      1 S              16
                        (    -283.268 eV)
   392     392      2.000      -0.583 au  C             1.00      2 S              16
                        (     -15.871 eV)
   393     393       --         0.414 au  C             1.00      3 S              16
                        (      11.266 eV)
   394     394       --         5.548 au  C             1.00      4 S              16
                        (     150.975 eV)
   395     395       --        50.362 au  C             1.00      5 S              16
                        (    1370.412 eV)
   396     396      0.667      -0.185 au  C             1.00      1 P:x            16
                        (      -5.048 eV)
   397     397       --         0.203 au  C             1.00      2 P:x            16
                        (       5.519 eV)
   398     398       --         2.124 au  C             1.00      3 P:x            16
                        (      57.805 eV)
   399     399      0.667      -0.185 au  C             1.00      1 P:y            16
                        (      -5.048 eV)
   400     400       --         0.203 au  C             1.00      2 P:y            16
                        (       5.519 eV)
   401     401       --         2.124 au  C             1.00      3 P:y            16
                        (      57.805 eV)
   402     402      0.667      -0.185 au  C             1.00      1 P:z            16
                        (      -5.048 eV)
   403     403       --         0.203 au  C             1.00      2 P:z            16
                        (       5.519 eV)
   404     404       --         2.124 au  C             1.00      3 P:z            16
                        (      57.805 eV)
   405     405       --         1.300 au  C             1.00      1 D:z2           16
                        (      35.364 eV)
   406     406       --         1.300 au  C             1.00      1 D:x2-y2        16
                        (      35.364 eV)
   407     407       --         1.300 au  C             1.00      1 D:xy           16
                        (      35.364 eV)
   408     408       --         1.300 au  C             1.00      1 D:xz           16
                        (      35.364 eV)
   409     409       --         1.300 au  C             1.00      1 D:yz           16
                        (      35.364 eV)
   410     410       --         4.096 au  C             1.00      1 F:z3           16
                        (     111.471 eV)
   411     411       --         4.096 au  C             1.00      1 F:z            16
                        (     111.471 eV)
   412     412       --         4.096 au  C             1.00      1 F:xyz          16
                        (     111.471 eV)
   413     413       --         4.096 au  C             1.00      1 F:z2x          16
                        (     111.471 eV)
   414     414       --         4.096 au  C             1.00      1 F:z2y          16
                        (     111.471 eV)
   415     415       --         4.096 au  C             1.00      1 F:x            16
                        (     111.471 eV)
   416     416       --         4.096 au  C             1.00      1 F:y            16
                        (     111.471 eV)
   417     417      2.000     -10.410 au  C             1.00      1 S              17
                        (    -283.268 eV)
   418     418      2.000      -0.583 au  C             1.00      2 S              17
                        (     -15.871 eV)
   419     419       --         0.414 au  C             1.00      3 S              17
                        (      11.266 eV)
   420     420       --         5.548 au  C             1.00      4 S              17
                        (     150.975 eV)
   421     421       --        50.362 au  C             1.00      5 S              17
                        (    1370.412 eV)
   422     422      0.667      -0.185 au  C             1.00      1 P:x            17
                        (      -5.048 eV)
   423     423       --         0.203 au  C             1.00      2 P:x            17
                        (       5.519 eV)
   424     424       --         2.124 au  C             1.00      3 P:x            17
                        (      57.805 eV)
   425     425      0.667      -0.185 au  C             1.00      1 P:y            17
                        (      -5.048 eV)
   426     426       --         0.203 au  C             1.00      2 P:y            17
                        (       5.519 eV)
   427     427       --         2.124 au  C             1.00      3 P:y            17
                        (      57.805 eV)
   428     428      0.667      -0.185 au  C             1.00      1 P:z            17
                        (      -5.048 eV)
   429     429       --         0.203 au  C             1.00      2 P:z            17
                        (       5.519 eV)
   430     430       --         2.124 au  C             1.00      3 P:z            17
                        (      57.805 eV)
   431     431       --         1.300 au  C             1.00      1 D:z2           17
                        (      35.364 eV)
   432     432       --         1.300 au  C             1.00      1 D:x2-y2        17
                        (      35.364 eV)
   433     433       --         1.300 au  C             1.00      1 D:xy           17
                        (      35.364 eV)
   434     434       --         1.300 au  C             1.00      1 D:xz           17
                        (      35.364 eV)
   435     435       --         1.300 au  C             1.00      1 D:yz           17
                        (      35.364 eV)
   436     436       --         4.096 au  C             1.00      1 F:z3           17
                        (     111.471 eV)
   437     437       --         4.096 au  C             1.00      1 F:z            17
                        (     111.471 eV)
   438     438       --         4.096 au  C             1.00      1 F:xyz          17
                        (     111.471 eV)
   439     439       --         4.096 au  C             1.00      1 F:z2x          17
                        (     111.471 eV)
   440     440       --         4.096 au  C             1.00      1 F:z2y          17
                        (     111.471 eV)
   441     441       --         4.096 au  C             1.00      1 F:x            17
                        (     111.471 eV)
   442     442       --         4.096 au  C             1.00      1 F:y            17
                        (     111.471 eV)
   443     443      2.000     -10.410 au  C             1.00      1 S              18
                        (    -283.268 eV)
   444     444      2.000      -0.583 au  C             1.00      2 S              18
                        (     -15.871 eV)
   445     445       --         0.414 au  C             1.00      3 S              18
                        (      11.266 eV)
   446     446       --         5.548 au  C             1.00      4 S              18
                        (     150.975 eV)
   447     447       --        50.362 au  C             1.00      5 S              18
                        (    1370.412 eV)
   448     448      0.667      -0.185 au  C             1.00      1 P:x            18
                        (      -5.048 eV)
   449     449       --         0.203 au  C             1.00      2 P:x            18
                        (       5.519 eV)
   450     450       --         2.124 au  C             1.00      3 P:x            18
                        (      57.805 eV)
   451     451      0.667      -0.185 au  C             1.00      1 P:y            18
                        (      -5.048 eV)
   452     452       --         0.203 au  C             1.00      2 P:y            18
                        (       5.519 eV)
   453     453       --         2.124 au  C             1.00      3 P:y            18
                        (      57.805 eV)
   454     454      0.667      -0.185 au  C             1.00      1 P:z            18
                        (      -5.048 eV)
   455     455       --         0.203 au  C             1.00      2 P:z            18
                        (       5.519 eV)
   456     456       --         2.124 au  C             1.00      3 P:z            18
                        (      57.805 eV)
   457     457       --         1.300 au  C             1.00      1 D:z2           18
                        (      35.364 eV)
   458     458       --         1.300 au  C             1.00      1 D:x2-y2        18
                        (      35.364 eV)
   459     459       --         1.300 au  C             1.00      1 D:xy           18
                        (      35.364 eV)
[...]
                                   -1.71%     3 S              15.427  0.00     3 N
                                    1.66%     2 P:z             5.519  0.00    12 C
                                    1.59%     2 P:x             5.519  0.00    12 C
                                   -1.57%     2 P:z             5.519  0.00     7 C
                                   -1.51%     2 P:x             5.519  0.00     8 C
                                   -1.50%     1 P:x            -5.048  0.67     6 C
                                    1.48%     3 P:z            57.805  0.00    18 C
                                    1.47%     1 P:z            -5.048  0.67    12 C
                                    1.34%     3 S              11.266  0.00     7 C
                                    1.32%     3 P:x            57.805  0.00    17 C
                                    1.27%     2 P:x             5.519  0.00     9 C
                                   -1.23%     1 P:x            12.103  0.00    28 H
                                    1.21%     2 P:z             5.519  0.00    14 C
                                   -1.16%     3 P:z            57.805  0.00    17 C
                                    1.06%     1 P:x            -5.048  0.67     9 C
                                   -1.02%     2 S             -15.871  2.00     6 C



 =======================================================================
 Electrostatic potential at the Nuclei due to electrons and other nuclei
 =======================================================================
  
         Atom                  Potential
         ----                  ---------
     1)   N                  18.37594099
     2)   C                  14.71042678
     3)   C                  14.73564357
     4)   C                  14.73217789
     5)   C                  14.74456796
     6)   C                  14.70374867
     7)   H                   1.06817866
     8)   H                   1.05458706
     9)   H                   1.06351562
    10)   H                   1.07186890
    11)   C                  14.69766486
    12)   C                  14.73083546
    13)   C                  14.72951141
    14)   C                  14.74828175
    15)   C                  14.70823404
    16)   N                  18.38190351
    17)   H                   1.02227686
    18)   H                   1.05066180
    19)   H                   1.08289825
    20)   C                  14.71973729
    21)   C                  14.77015988
    22)   C                  14.75740833
    23)   C                  14.77310639
    24)   C                  14.76255610
    25)   N                  18.40755798
    26)   H                   1.09355895
    27)   H                   1.09451581
    28)   H                   1.10293785
    29)   H                   1.13981410
 Mulliken charges used for AMS results%charges...


    =====================
     CALCULATION RESULTS
    =====================

Energy (hartree)            -7.65158675


--------------
Atomic charges
--------------
  Index   Atom    Charge
      1      N   -0.3555
      2      C    0.2731
      3      C    0.2191
      4      C    0.2514
      5      C    0.2434
      6      C    0.1794
      7      H   -0.1722
      8      H   -0.1976
      9      H   -0.2119
     10      H   -0.0790
     11      C   -0.2771
     12      C    0.0832
     13      C    0.6112
     14      C    0.7977
     15      C    0.5602
     16      N   -0.4813
     17      H   -0.1208
     18      H   -0.1915
     19      H   -0.1133
     20      C   -1.1444
     21      C    0.0266
     22      C   -0.5749
     23      C    2.5576
     24      C   -2.3730
     25      N    1.3537
     26      H   -0.4120
     27      H   -0.1872
     28      H   -0.9359
     29      H    0.6709


Dipole moment vector    (Debye):    -4.41171097    0.00000001    8.89180391
              magnitude (Debye):     9.92609543


-----------------------
Molecular orbitals info
-----------------------
n orbitals:              589
n spin:                    1

Note: only printing virtual orbitals with
      energy smaller than HOMO + 100. eV

HOMO (eV):              -7.1322
LUMO (eV):              -2.4033
HOMO-LUMO gap (eV):      4.7289

   Index   Energy (eV)    Occupation
     353       91.4002         0.000       
     352       91.2727         0.000       
     351       90.4542         0.000       
     350       90.1820         0.000       
     349       89.8208         0.000       
     348       89.0060         0.000       
     347       88.7671         0.000       
     346       88.5158         0.000       
     345       87.7159         0.000       
     344       87.5870         0.000       
     343       87.2371         0.000       
     342       86.9801         0.000       
     341       86.6611         0.000       
     340       86.3877         0.000       
     339       85.7938         0.000       
     338       85.6093         0.000       
     337       85.2950         0.000       
     336       84.7118         0.000       
     335       84.2132         0.000       
     334       84.1339         0.000       
     333       83.5100         0.000       
     332       83.1637         0.000       
     331       83.0836         0.000       
     330       83.0550         0.000       
     329       82.5837         0.000       
     328       82.1569         0.000       
     327       81.9801         0.000       
     326       81.6359         0.000       
     325       80.6680         0.000       
     324       80.2436         0.000       
     323       80.0649         0.000       
     322       79.5287         0.000       
     321       79.4913         0.000       
     320       78.8387         0.000       
     319       78.5839         0.000       
     318       77.9615         0.000       
     317       77.6333         0.000       
     316       76.6545         0.000       
     315       76.5714         0.000       
     314       76.4522         0.000       
     313       75.6165         0.000       
     312       75.4040         0.000       
     311       75.2326         0.000       
     310       74.6492         0.000       
     309       74.2992         0.000       
     308       73.8350         0.000       
     307       73.4697         0.000       
     306       73.1386         0.000       
     305       72.9161         0.000       
     304       71.3858         0.000       
     303       71.0341         0.000       
     302       70.8479         0.000       
     301       70.0252         0.000       
     300       69.9531         0.000       
     299       69.3432         0.000       
     298       69.2401         0.000       
     297       69.2372         0.000       
     296       68.7760         0.000       
     295       68.7244         0.000       
     294       68.4864         0.000       
     293       68.1137         0.000       
     292       67.9935         0.000       
     291       66.9773         0.000       
     290       66.6759         0.000       
     289       66.6502         0.000       
     288       66.0380         0.000       
     287       65.6936         0.000       
     286       65.6152         0.000       
     285       65.0321         0.000       
     284       64.8548         0.000       
     283       64.7046         0.000       
     282       64.1499         0.000       
     281       63.5995         0.000       
     280       62.8880         0.000       
     279       62.3124         0.000       
     278       61.1101         0.000       
     277       60.9253         0.000       
     276       60.0848         0.000       
     275       59.4478         0.000       
     274       59.1734         0.000       
     273       58.7090         0.000       
     272       58.3466         0.000       
     271       58.1520         0.000       
     270       57.5800         0.000       
     269       56.7614         0.000       
     268       56.6295         0.000       
     267       56.3913         0.000       
     266       55.8010         0.000       
     265       55.3083         0.000       
     264       55.2402         0.000       
     263       54.7307         0.000       
     262       54.3395         0.000       
     261       54.2206         0.000       
     260       53.9316         0.000       
     259       53.7035         0.000       
     258       53.3943         0.000       
     257       53.3838         0.000       
     256       52.9632         0.000       
     255       52.7422         0.000       
     254       52.4237         0.000       
     253       52.1171         0.000       
     252       52.0660         0.000       
     251       51.8882         0.000       
     250       51.2495         0.000       
     249       50.4849         0.000       
     248       50.2488         0.000       
     247       50.0464         0.000       
     246       49.5618         0.000       
     245       49.1064         0.000       
     244       48.5998         0.000       
     243       47.6023         0.000       
     242       47.2563         0.000       
     241       46.9347         0.000       
     240       46.4896         0.000       
     239       46.2889         0.000       
     238       45.5736         0.000       
     237       44.3467         0.000       
     236       44.2632         0.000       
     235       43.2789         0.000       
     234       43.0185         0.000       
     233       42.7885         0.000       
     232       42.5761         0.000       
     231       42.3191         0.000       
     230       41.9961         0.000       
     229       41.7527         0.000       
     228       41.6802         0.000       
     227       40.9877         0.000       
     226       40.9845         0.000       
     225       40.5824         0.000       
     224       39.7782         0.000       
     223       39.4264         0.000       
     222       39.2700         0.000       
     221       39.2066         0.000       
     220       38.8773         0.000       
     219       38.6834         0.000       
     218       38.6136         0.000       
     217       38.3094         0.000       
     216       38.0522         0.000       
     215       37.9675         0.000       
     214       37.6644         0.000       
     213       37.4014         0.000       
     212       37.2527         0.000       
     211       36.6965         0.000       
     210       36.5567         0.000       
     209       35.9830         0.000       
     208       35.7684         0.000       
     207       35.7090         0.000       
     206       35.2265         0.000       
     205       34.0580         0.000       
     204       34.0224         0.000       
     203       33.9157         0.000       
     202       33.2640         0.000       
     201       32.3705         0.000       
     200       31.2732         0.000       
     199       31.0048         0.000       
     198       30.5297         0.000       
     197       30.4709         0.000       
     196       30.2406         0.000       
     195       30.1297         0.000       
     194       29.9195         0.000       
     193       29.7487         0.000       
     192       29.4418         0.000       
     191       28.9274         0.000       
     190       28.3124         0.000       
     189       28.2142         0.000       
     188       27.9563         0.000       
     187       27.6502         0.000       
     186       27.5486         0.000       
     185       27.5260         0.000       
     184       27.2938         0.000       
     183       27.1623         0.000       
     182       26.8965         0.000       
     181       26.6153         0.000       
     180       26.5257         0.000       
     179       26.3858         0.000       
     178       26.0432         0.000       
     177       25.7818         0.000       
     176       25.7229         0.000       
     175       25.4873         0.000       
     174       25.2773         0.000       
     173       24.8740         0.000       
     172       24.6869         0.000       
     171       23.8201         0.000       
     170       23.6856         0.000       
     169       23.3326         0.000       
     168       22.9390         0.000       
     167       22.6214         0.000       
     166       21.8895         0.000       
     165       21.3926         0.000       
     164       21.2366         0.000       
     163       20.9688         0.000       
     162       20.3555         0.000       
     161       20.3541         0.000       
     160       20.1816         0.000       
     159       19.9630         0.000       
     158       19.7156         0.000       
     157       19.6022         0.000       
     156       19.4136         0.000       
     155       19.0874         0.000       
     154       18.9422         0.000       
     153       18.7718         0.000       
     152       18.6589         0.000       
     151       18.4619         0.000       
     150       18.1568         0.000       
     149       17.8531         0.000       
     148       17.6221         0.000       
     147       17.1472         0.000       
     146       16.9997         0.000       
     145       16.8518         0.000       
     144       16.5694         0.000       
     143       16.2603         0.000       
     142       15.9097         0.000       
     141       15.7544         0.000       
     140       15.2066         0.000       
     139       14.6682         0.000       
     138       14.4716         0.000       
     137       13.6861         0.000       
     136       13.2610         0.000       
     135       13.2364         0.000       
     134       12.8943         0.000       
     133       12.7888         0.000       
     132       12.6092         0.000       
     131       12.6036         0.000       
     130       12.3736         0.000       
     129       12.0931         0.000       
     128       11.9171         0.000       
     127       11.4528         0.000       
     126       11.3519         0.000       
     125       10.8215         0.000       
     124       10.6815         0.000       
     123       10.5553         0.000       
     122       10.4995         0.000       
     121       10.3549         0.000       
     120       10.2157         0.000       
     119        9.9333         0.000       
     118        9.8816         0.000       
     117        9.8503         0.000       
     116        9.6201         0.000       
     115        9.4154         0.000       
     114        9.0599         0.000       
     113        9.0011         0.000       
     112        8.9500         0.000       
     111        8.7421         0.000       
     110        8.6398         0.000       
     109        8.3162         0.000       
     108        8.1992         0.000       
     107        8.0054         0.000       
     106        7.8435         0.000       
     105        7.4449         0.000       
     104        7.3599         0.000       
     103        7.1667         0.000       
     102        7.0474         0.000       
     101        6.7751         0.000       
     100        6.7699         0.000       
      99        6.6277         0.000       
      98        6.3738         0.000       
      97        6.1486         0.000       
      96        6.0191         0.000       
      95        5.8844         0.000       
      94        5.7129         0.000       
      93        5.5410         0.000       
      92        5.4271         0.000       
      91        5.1912         0.000       
      90        4.9241         0.000       
      89        4.8713         0.000       
      88        4.8161         0.000       
      87        4.6339         0.000       
      86        4.4408         0.000       
      85        4.3772         0.000       
      84        4.2219         0.000       
      83        3.8318         0.000       
      82        3.5503         0.000       
      81        3.4973         0.000       
      80        3.4782         0.000       
      79        2.9364         0.000       
      78        2.6530         0.000       
      77        2.6269         0.000       
      76        2.4700         0.000       
      75        2.1970         0.000       
      74        1.6645         0.000       
      73        1.4265         0.000       
      72        1.0491         0.000       
      71        0.5895         0.000       
      70        0.5074         0.000       
      69        0.3865         0.000       
      68        0.0515         0.000       
      67       -0.2579         0.000       
      66       -0.7065         0.000       
      65       -1.1966         0.000       
      64       -1.4741         0.000       
      63       -2.0573         0.000       
      62       -2.4033         0.000 < LUMO
      61       -7.1322         2.000 < HOMO
      60       -7.4697         2.000       
      59       -7.9081         2.000       
      58       -8.2364         2.000       
      57       -8.3060         2.000       
      56       -8.7720         2.000       
      55       -9.0712         2.000       
      54       -9.3323         2.000       
      53       -9.5154         2.000       
      52      -10.5114         2.000       
      51      -11.0545         2.000       
      50      -11.2467         2.000       
      49      -11.3907         2.000       
      48      -11.5875         2.000       
      47      -12.0752         2.000       
      46      -12.2589         2.000       
      45      -12.3083         2.000       
      44      -12.4511         2.000       
      43      -13.0499         2.000       
      42      -13.0641         2.000       
      41      -13.3538         2.000       
      40      -13.5731         2.000       
      39      -14.0437         2.000       
      38      -14.3605         2.000       
      37      -14.5065         2.000       
      36      -14.9529         2.000       
      35      -15.4952         2.000       
      34      -16.9080         2.000       
      33      -17.2991         2.000       
      32      -17.5167         2.000       
      31      -18.4191         2.000       
      30      -18.4250         2.000       
      29      -19.1272         2.000       
      28      -20.1781         2.000       
      27      -20.7969         2.000       
      26      -21.8432         2.000       
      25      -22.4748         2.000       
      24      -23.3290         2.000       
      23      -23.8628         2.000       
      22      -24.8418         2.000       
      21      -26.8286         2.000       
      20      -27.6706         2.000       
      19      -35.1682         2.000       
      18     -276.7989         2.000       
      17     -278.7734         2.000       
      16     -278.8614         2.000       
      15     -278.8667         2.000       
      14     -279.4179         2.000       
      13     -279.5014         2.000       
      12     -279.5844         2.000       
      11     -279.8063         2.000       
      10     -279.8520         2.000       
       9     -279.9782         2.000       
       8     -280.2389         2.000       
       7     -280.4146         2.000       
       6     -280.5270         2.000       
       5     -281.1378         2.000       
       4     -281.2457         2.000       
       3     -391.6365         2.000       
       2     -392.5405         2.000       
       1     -392.7382         2.000       

AMS application finished. Exiting.
NORMAL TERMINATION
     Total cpu time:     329.32
  Total system time:       5.52
 Total elapsed time:     344.59
