

 Parallel Execution: Process Information
 ==============================================================================
 Rank   Node Name                              NodeID   MyNodeRank  NodeMaster
    0   u-0-11.local                              0          0          0
    1   u-0-11.local                              1          0          1
    2   u-0-11.local                              2          0          2
    3   u-0-11.local                              3          0          3
 ==============================================================================


May use up to 31200MB of RAM as shared memory on node 0
May use up to 31250MB of RAM as shared memory on node 1
May use up to 31250MB of RAM as shared memory on node 3
May use up to 31250MB of RAM as shared memory on node 2

 *******************************************************************************
 *                                                                             *
 *  --------------------------------                                           *
 *   Amsterdam Modeling Suite (AMS)              2025.104                      *
 *  --------------------------------                                           *
 *                                               r250815 2025-08-15 94ea0506   *
 *                                                                             *
 *                                                                             *
 *                              =================                              *
 *                              |               |                              *
 *                              |     A M S     |                              *
 *                              |               |                              *
 *                              =================                              *
 *                                                                             *
 *                                                                             *
 *   Online information and documentation:  https://www.scm.com/support/       *
 *   E-mail:  support@scm.com   info@scm.com                                   *
 *                                                                             *
 *   Scientific publications using AMS results must be properly referenced     *
 *   See the User Manuals (or the web site) for recommended citations          *
 *   The terms and conditions of the End User License Agreement apply to       *
 *   the use of AMS, https://www.scm.com/license-terms/                        *
 *                                                                             *
 **********************  x86_64_linux_intel / intelmpi  ************************
 
 Licensed to: Dr. Val?rie Vallet / Laboratoire PhLAM UMR 8523 / Villeneuve d'Ascq Cedex / FRANCE 2024-12-20 16:14:47
 SCM User ID: u10325
  
 AMS 2025.104  RunTime: Nov13-2025 11:54:09  ShM Nodes: 4  Procs: 4

 AMS jobname: HClO4.pbe0-d3bj-gp.x2c-so
 AMS jobid  : 752849775

 Start   directory: /state/partition2/vallet/1073346.phlam-s-sakura/
 Results directory: /home/vallet/ANL/ANL-UVI-structures-Emily/HClO4/X2C-SO/HClO4.pbe0-d3bj-gp.x2c-so.results/
 Scratch directory: /state/partition2/vallet/1073346.phlam-s-sakura/amstmp_HClO4.pbe0-d3bj-gp.x2c-so_kid0.752849775/


 Communication costs MPI_COMM_WORLD:      0.515 usec per message,   0.0539 usec per 8-byte item
 Communication costs for intra-node:      0.147 usec per message,   0.0005 usec per 8-byte item

 RNG seed: -307930215 315815728 -1558508023 -324555061 235204742 -1500602122 -559585055 -1648881386



                      ************************************************************************
                      *  ADF 2025.104  RunTime: Nov13-2025 11:54:10  ShM Nodes: 4  Procs: 4  *
                      ************************************************************************
  

       ****************************
       * SINGLE POINT CALCULATION *
       ****************************
 
--------
Geometry
--------
Formula: HClO4
Atoms
  Index Symbol   x (angstrom)   y (angstrom)   z (angstrom)
      1      O     1.43979600    -0.18345600    -0.52787300
      2     Cl     0.16328200     0.30658900    -0.19923300
      3      O    -0.86261000    -0.12486100    -1.06658100
      4      O    -0.17096900     0.17886000     1.16589000
      5      O     0.35294000     1.86917500    -0.47120000
      6      H    -0.49484500     2.31284400    -0.27017200
 
Total System Charge             0.00000
Bonding info available!
 
 
----------------
ADF Engine Input
----------------
 
 Basis
 Type TZ2P
 Core None
 End
 XC
 Hybrid PBE0
 DISPERSION Grimme3 BJDAMP
 End
 Relativity
 Level Spin-Orbit
 Formalism X2C
 SpinOrbitMagnetization NonCollinear
 End
 NumericalQuality Good
 

 Title: *** (NO TITLE) ***

 *** adf ***



 ===========================
 A T T A C H E D   F I L E S
 ===========================
  



 ===============================
 M O D E L   P A R A M E T E R S
 ===============================
  
 DENSITY FUNCTIONAL POTENTIAL (scf)
    Hybrid:                            PBE0                                    == Not Default ==

 SPIN  (restricted / unrestr.)
    Molecule:                          Restricted                               
    Fragments:                         Restricted                               

 OTHER ASPECTS
    Relativistic Corrections:          Spin-Orbit (X2C,MAPA)                   == Not Default ==

    Nuclear Charge Density Model:      Point Charge Nuclei                      
    Core Treatment:                    Frozen Orbital(s)                        

    Hyperfine or Zeeman Interaction:   ---                                      

 Settings for Grimme D3 dispersion correction

      damping                        BJ
      s6                          1.000
      s8                          1.218
      a1                          0.414
      a2                          4.859

 Other (technical) parameters

      alpha                      14.000
      version                         4
 


 Fragment File(s)
 ----------------
 O:
         file : /home/vallet/ANL/ANL-UVI-structures-Emily/HClO4/X2C-SO/HClO4.pbe0-d3bj-gp.x2c-so.results/t21.2E30D0CB.O
         jobid: 0
         title: Oxygen (TZ2P)
 Cl:
         file : /home/vallet/ANL/ANL-UVI-structures-Emily/HClO4/X2C-SO/HClO4.pbe0-d3bj-gp.x2c-so.results/t21.137451C4.Cl
         jobid: 0
         title: Chlorine (TZ2P)
 H:
         file : /home/vallet/ANL/ANL-UVI-structures-Emily/HClO4/X2C-SO/HClO4.pbe0-d3bj-gp.x2c-so.results/t21.316B2D2C.H
         jobid: 0
         title: Hydrogen (TZ2P)



 ===============
 G E O M E T R Y  ***  3D  Molecule  ***
 ===============
  

 ATOMS
 =====                            X Y Z                    CHARGE
                                (Angstrom)             Nucl     +Core       At.Mass
                       --------------------------    ----------------       -------
    1  O               1.4398   -0.1835   -0.5279      8.00      8.00       15.9949
    2  Cl              0.1633    0.3066   -0.1992     17.00     17.00       34.9689
    3  O              -0.8626   -0.1249   -1.0666      8.00      8.00       15.9949
    4  O              -0.1710    0.1789    1.1659      8.00      8.00       15.9949
    5  O               0.3529    1.8692   -0.4712      8.00      8.00       15.9949
    6  H              -0.4948    2.3128   -0.2702      1.00      1.00        1.0078


 FRAGMENTS
 =========                                     Atoms in this Fragment     Cart. coord.s (Angstrom)
                                               -------------------------------------------------------
    1  O                                                 1  O            1.4398   -0.1835   -0.5279
    2  O                                                 3  O           -0.8626   -0.1249   -1.0666
    3  O                                                 4  O           -0.1710    0.1789    1.1659
    4  O                                                 5  O            0.3529    1.8692   -0.4712
    5  Cl                                                2  Cl           0.1633    0.3066   -0.1992
    6  H                                                 6  H           -0.4948    2.3128   -0.2702


 Interatomic Distance Matrix (Angstrom)
 --------------------------------------

   1)     0.000
   2)     1.406   0.000
   3)     2.365   1.411   0.000
   4)     2.365   1.411   2.357   0.000
   5)     2.323   1.597   2.410   2.411   0.000
   6)     3.169   2.113   2.591   2.593   0.978   0.000

 Min. Distance =    0.9777
 Max. Distance =    3.1687



 =====================================
 S Y M M E T R Y ,   E L E C T R O N S
 =====================================
  
 Symmetry: NOSYM

 Double Group Irreducible Representations (spinor symmetry)
 -----------------------------------------------------------
 A1/2

 Symmetry is NOT used when fitting density


 Configuration of Valence Electrons
 ==================================
 ( determined in the SCF procedure )

 Total:   50

 Net Charge: 0 (Nuclei minus Electrons)

 Aufbau principle for MO occupations will be applied through SCF cycle no.     150
 Thereafter, the program will assign electrons to MOs that are spatially
 similar to the occupied MOs in a "reference" cycle ("KeepOrbitals").
 The reference cycle is always the PREVIOUS cycle: it will evolve with
 the SCF procedure.
 ***************************************************************************************************



                                      ****************************************
                                      *  B U I L D : (Fragments, Functions)  *
                                      ****************************************
  



 =======
 S F O s  ***  (Symmetrized Fragment Orbitals)  ***
 =======
  
 SFOs are linear combinations of (valence) Fragment Orbitals (FOs), such that the SFOs transform as the
 irreducible representations of the (molecular) symmetry group. Each SFO is therefore characterized by
 an irrep of the molecule and by a few (or only one) generating FOs.
 The SFOs constitute a symmetry-adapted basis for the Fock matrix. The MO eigenvector coefficients in
 this basis provide a direct interpretation of the MOs in terms of Frontier Orbital Theory.

 The SFOs are combined with auxiliary Core Functions (CFs) to ensure orthogonalization on the (frozen)
 Core Orbitals (COs). The Core-orthogonalized SFOs (CSFOs) constitute the true Fock basis.

 The FOs, and hence also the (C)SFOs are combinations of the elementary basis functions (BAS). The basis
 functions that participate in the description of the SFOs depend on the irrep. The indices of the
 involved functions are printed below for each irrep.
 (The complete list of primitive basis functions is printed in another section)

 Total nr. of (C)SFOs (summation over all irreps) :   149

 NOTE: a (C)SFO that is defined as a combination of more than one FO is usually NOT normalized.

 NOTE: the (C)SFOs are single group symmetry adapted orbitals.



                                       === A ===
 Nr. of SFOs :  149
 Cartesian basis functions that participate in this irrep (total number =   170) :
      1     2     3     4     5     6     9    12     7    10
     13     8    11    14    15    16    17    18    19    20
     21    22    23    24    25    26    27    28    29    30
     31    32    33    34    35    36    39    42    37    40
     43    38    41    44    45    46    47    48    49    50
     51    52    53    54    55    56    57    58    59    60
     61    62    63    64    65    66    69    72    67    70
     73    68    71    74    75    76    77    78    79    80
     81    82    83    84    85    86    87    88    89    90
     91    92    93    94    95    96    99   102    97   100
    103    98   101   104   105   106   107   108   109   110
    111   112   113   114   115   116   117   118   119   120
    121   122   123   124   131   132   133   125   128   134
    137   140   126   129   135   138   141   127   130   136
    139   142   143   144   145   146   147   148   149   150
    151   152   153   154   155   156   157   158   159   160
    161   162   163   164   165   166   167   168   169   170

    SFO  (index         Fragment          Generating    Expansion in Fragment Orbitals
  indx  incl.CFs)   Occup   Orb.Energy   FragmentType  Coeff.   Orbital     on Fragment
 --------------------------------------------------------------------------------------
     1       1      2.000     -19.396 au  O             1.00      1 S               1
                        (    -527.798 eV)
     2       2      2.000      -0.999 au  O             1.00      2 S               1
                        (     -27.197 eV)
     3       3       --         0.856 au  O             1.00      3 S               1
                        (      23.286 eV)
     4       4       --        13.669 au  O             1.00      4 S               1
                        (     371.959 eV)
     5       5       --       122.371 au  O             1.00      5 S               1
                        (    3329.873 eV)
     6       6      1.333      -0.366 au  O             1.00      1 P:x             1
                        (      -9.955 eV)
     7       7       --         0.397 au  O             1.00      2 P:x             1
                        (      10.811 eV)
     8       8       --         3.979 au  O             1.00      3 P:x             1
                        (     108.279 eV)
     9       9      1.333      -0.366 au  O             1.00      1 P:y             1
                        (      -9.955 eV)
    10      10       --         0.397 au  O             1.00      2 P:y             1
                        (      10.811 eV)
    11      11       --         3.979 au  O             1.00      3 P:y             1
                        (     108.279 eV)
    12      12      1.333      -0.366 au  O             1.00      1 P:z             1
                        (      -9.955 eV)
    13      13       --         0.397 au  O             1.00      2 P:z             1
                        (      10.811 eV)
    14      14       --         3.979 au  O             1.00      3 P:z             1
                        (     108.279 eV)
    15      15       --         1.128 au  O             1.00      1 D:z2            1
                        (      30.706 eV)
    16      16       --         1.128 au  O             1.00      1 D:x2-y2         1
                        (      30.706 eV)
    17      17       --         1.128 au  O             1.00      1 D:xy            1
                        (      30.706 eV)
    18      18       --         1.128 au  O             1.00      1 D:xz            1
                        (      30.706 eV)
    19      19       --         1.128 au  O             1.00      1 D:yz            1
                        (      30.706 eV)
    20      20       --         3.446 au  O             1.00      1 F:z3            1
                        (      93.772 eV)
    21      21       --         3.446 au  O             1.00      1 F:z             1
                        (      93.772 eV)
    22      22       --         3.446 au  O             1.00      1 F:xyz           1
                        (      93.772 eV)
    23      23       --         3.446 au  O             1.00      1 F:z2x           1
                        (      93.772 eV)
    24      24       --         3.446 au  O             1.00      1 F:z2y           1
                        (      93.772 eV)
    25      25       --         3.446 au  O             1.00      1 F:x             1
                        (      93.772 eV)
    26      26       --         3.446 au  O             1.00      1 F:y             1
                        (      93.772 eV)
    27      27      2.000     -19.396 au  O             1.00      1 S               2
                        (    -527.798 eV)
    28      28      2.000      -0.999 au  O             1.00      2 S               2
                        (     -27.197 eV)
    29      29       --         0.856 au  O             1.00      3 S               2
                        (      23.286 eV)
    30      30       --        13.669 au  O             1.00      4 S               2
                        (     371.959 eV)
    31      31       --       122.371 au  O             1.00      5 S               2
                        (    3329.873 eV)
    32      32      1.333      -0.366 au  O             1.00      1 P:x             2
                        (      -9.955 eV)
    33      33       --         0.397 au  O             1.00      2 P:x             2
                        (      10.811 eV)
    34      34       --         3.979 au  O             1.00      3 P:x             2
                        (     108.279 eV)
    35      35      1.333      -0.366 au  O             1.00      1 P:y             2
                        (      -9.955 eV)
    36      36       --         0.397 au  O             1.00      2 P:y             2
                        (      10.811 eV)
    37      37       --         3.979 au  O             1.00      3 P:y             2
                        (     108.279 eV)
    38      38      1.333      -0.366 au  O             1.00      1 P:z             2
                        (      -9.955 eV)
    39      39       --         0.397 au  O             1.00      2 P:z             2
                        (      10.811 eV)
    40      40       --         3.979 au  O             1.00      3 P:z             2
                        (     108.279 eV)
    41      41       --         1.128 au  O             1.00      1 D:z2            2
                        (      30.706 eV)
    42      42       --         1.128 au  O             1.00      1 D:x2-y2         2
                        (      30.706 eV)
    43      43       --         1.128 au  O             1.00      1 D:xy            2
                        (      30.706 eV)
    44      44       --         1.128 au  O             1.00      1 D:xz            2
                        (      30.706 eV)
    45      45       --         1.128 au  O             1.00      1 D:yz            2
                        (      30.706 eV)
    46      46       --         3.446 au  O             1.00      1 F:z3            2
                        (      93.772 eV)
    47      47       --         3.446 au  O             1.00      1 F:z             2
                        (      93.772 eV)
    48      48       --         3.446 au  O             1.00      1 F:xyz           2
                        (      93.772 eV)
    49      49       --         3.446 au  O             1.00      1 F:z2x           2
                        (      93.772 eV)
    50      50       --         3.446 au  O             1.00      1 F:z2y           2
                        (      93.772 eV)
    51      51       --         3.446 au  O             1.00      1 F:x             2
                        (      93.772 eV)
    52      52       --         3.446 au  O             1.00      1 F:y             2
                        (      93.772 eV)
    53      53      2.000     -19.396 au  O             1.00      1 S               3
                        (    -527.798 eV)
    54      54      2.000      -0.999 au  O             1.00      2 S               3
                        (     -27.197 eV)
    55      55       --         0.856 au  O             1.00      3 S               3
                        (      23.286 eV)
    56      56       --        13.669 au  O             1.00      4 S               3
                        (     371.959 eV)
    57      57       --       122.371 au  O             1.00      5 S               3
                        (    3329.873 eV)
    58      58      1.333      -0.366 au  O             1.00      1 P:x             3
                        (      -9.955 eV)
    59      59       --         0.397 au  O             1.00      2 P:x             3
                        (      10.811 eV)
    60      60       --         3.979 au  O             1.00      3 P:x             3
                        (     108.279 eV)
    61      61      1.333      -0.366 au  O             1.00      1 P:y             3
                        (      -9.955 eV)
    62      62       --         0.397 au  O             1.00      2 P:y             3
                        (      10.811 eV)
    63      63       --         3.979 au  O             1.00      3 P:y             3
                        (     108.279 eV)
    64      64      1.333      -0.366 au  O             1.00      1 P:z             3
                        (      -9.955 eV)
    65      65       --         0.397 au  O             1.00      2 P:z             3
                        (      10.811 eV)
    66      66       --         3.979 au  O             1.00      3 P:z             3
                        (     108.279 eV)
    67      67       --         1.128 au  O             1.00      1 D:z2            3
                        (      30.706 eV)
    68      68       --         1.128 au  O             1.00      1 D:x2-y2         3
                        (      30.706 eV)
    69      69       --         1.128 au  O             1.00      1 D:xy            3
                        (      30.706 eV)
    70      70       --         1.128 au  O             1.00      1 D:xz            3
                        (      30.706 eV)
    71      71       --         1.128 au  O             1.00      1 D:yz            3
                        (      30.706 eV)
    72      72       --         3.446 au  O             1.00      1 F:z3            3
                        (      93.772 eV)
    73      73       --         3.446 au  O             1.00      1 F:z             3
                        (      93.772 eV)
    74      74       --         3.446 au  O             1.00      1 F:xyz           3
                        (      93.772 eV)
    75      75       --         3.446 au  O             1.00      1 F:z2x           3
                        (      93.772 eV)
    76      76       --         3.446 au  O             1.00      1 F:z2y           3
                        (      93.772 eV)
    77      77       --         3.446 au  O             1.00      1 F:x             3
                        (      93.772 eV)
    78      78       --         3.446 au  O             1.00      1 F:y             3
                        (      93.772 eV)
    79      79      2.000     -19.396 au  O             1.00      1 S               4
                        (    -527.798 eV)
    80      80      2.000      -0.999 au  O             1.00      2 S               4
                        (     -27.197 eV)
    81      81       --         0.856 au  O             1.00      3 S               4
                        (      23.286 eV)
    82      82       --        13.669 au  O             1.00      4 S               4
                        (     371.959 eV)
    83      83       --       122.371 au  O             1.00      5 S               4
                        (    3329.873 eV)
    84      84      1.333      -0.366 au  O             1.00      1 P:x             4
                        (      -9.955 eV)
    85      85       --         0.397 au  O             1.00      2 P:x             4
                        (      10.811 eV)
    86      86       --         3.979 au  O             1.00      3 P:x             4
                        (     108.279 eV)
    87      87      1.333      -0.366 au  O             1.00      1 P:y             4
                        (      -9.955 eV)
    88      88       --         0.397 au  O             1.00      2 P:y             4
                        (      10.811 eV)
    89      89       --         3.979 au  O             1.00      3 P:y             4
                        (     108.279 eV)
    90      90      1.333      -0.366 au  O             1.00      1 P:z             4
                        (      -9.955 eV)
    91      91       --         0.397 au  O             1.00      2 P:z             4
                        (      10.811 eV)
    92      92       --         3.979 au  O             1.00      3 P:z             4
                        (     108.279 eV)
    93      93       --         1.128 au  O             1.00      1 D:z2            4
                        (      30.706 eV)
    94      94       --         1.128 au  O             1.00      1 D:x2-y2         4
                        (      30.706 eV)
    95      95       --         1.128 au  O             1.00      1 D:xy            4
                        (      30.706 eV)
    96      96       --         1.128 au  O             1.00      1 D:xz            4
                        (      30.706 eV)
    97      97       --         1.128 au  O             1.00      1 D:yz            4
                        (      30.706 eV)
    98      98       --         3.446 au  O             1.00      1 F:z3            4
                        (      93.772 eV)
    99      99       --         3.446 au  O             1.00      1 F:z             4
                        (      93.772 eV)
   100     100       --         3.446 au  O             1.00      1 F:xyz           4
                        (      93.772 eV)
   101     101       --         3.446 au  O             1.00      1 F:z2x           4
                        (      93.772 eV)
   102     102       --         3.446 au  O             1.00      1 F:z2y           4
                        (      93.772 eV)
   103     103       --         3.446 au  O             1.00      1 F:x             4
                        (      93.772 eV)
   104     104       --         3.446 au  O             1.00      1 F:y             4
                        (      93.772 eV)
   105     105      2.000    -102.121 au  Cl            1.00      1 S               5
                        (   -2778.863 eV)
   106     106      2.000      -9.646 au  Cl            1.00      2 S               5
                        (    -262.477 eV)
   107     107      2.000      -0.854 au  Cl            1.00      3 S               5
                        (     -23.230 eV)
   108     108       --         0.235 au  Cl            1.00      4 S               5
                        (       6.405 eV)
   109     109       --         2.083 au  Cl            1.00      5 S               5
                        (      56.673 eV)
   110     110       --        12.853 au  Cl            1.00      6 S               5
                        (     349.758 eV)
   111     111       --       206.406 au  Cl            1.00      7 S               5
                        (    5616.597 eV)
   112     112      2.000      -7.310 au  Cl            1.00      1 P:x             5
                        (    -198.928 eV)
   113     113      1.667      -0.356 au  Cl            1.00      2 P:x             5
                        (      -9.674 eV)
   114     114       --         0.265 au  Cl            1.00      3 P:x             5
                        (       7.199 eV)
   115     115       --         2.208 au  Cl            1.00      4 P:x             5
                        (      60.083 eV)
   116     116       --        19.015 au  Cl            1.00      5 P:x             5
                        (     517.435 eV)
   117     117      2.000      -7.310 au  Cl            1.00      1 P:y             5
                        (    -198.928 eV)
   118     118      1.667      -0.356 au  Cl            1.00      2 P:y             5
                        (      -9.674 eV)
   119     119       --         0.265 au  Cl            1.00      3 P:y             5
                        (       7.199 eV)
   120     120       --         2.208 au  Cl            1.00      4 P:y             5
                        (      60.083 eV)
   121     121       --        19.015 au  Cl            1.00      5 P:y             5
                        (     517.435 eV)
   122     122      2.000      -7.310 au  Cl            1.00      1 P:z             5
                        (    -198.928 eV)
   123     123      1.667      -0.356 au  Cl            1.00      2 P:z             5
                        (      -9.674 eV)
   124     124       --         0.265 au  Cl            1.00      3 P:z             5
                        (       7.199 eV)
   125     125       --         2.208 au  Cl            1.00      4 P:z             5
                        (      60.083 eV)
   126     126       --        19.015 au  Cl            1.00      5 P:z             5
                        (     517.435 eV)
   127     127       --         0.444 au  Cl            1.00      1 D:z2            5
                        (      12.083 eV)
   128     128       --         0.444 au  Cl            1.00      1 D:x2-y2         5
                        (      12.083 eV)
   129     129       --         0.444 au  Cl            1.00      1 D:xy            5
                        (      12.083 eV)
   130     130       --         0.444 au  Cl            1.00      1 D:xz            5
                        (      12.083 eV)
   131     131       --         0.444 au  Cl            1.00      1 D:yz            5
                        (      12.083 eV)
   132     132       --         1.251 au  Cl            1.00      1 F:z3            5
                        (      34.043 eV)
   133     133       --         1.251 au  Cl            1.00      1 F:z             5
                        (      34.043 eV)
   134     134       --         1.251 au  Cl            1.00      1 F:xyz           5
                        (      34.043 eV)
   135     135       --         1.251 au  Cl            1.00      1 F:z2x           5
                        (      34.043 eV)
   136     136       --         1.251 au  Cl            1.00      1 F:z2y           5
                        (      34.043 eV)
   137     137       --         1.251 au  Cl            1.00      1 F:x             5
                        (      34.043 eV)
   138     138       --         1.251 au  Cl            1.00      1 F:y             5
                        (      34.043 eV)
   139     139      1.000      -0.242 au  H             1.00      1 S               6
                        (      -6.582 eV)
   140     140       --         0.113 au  H             1.00      2 S               6
                        (       3.073 eV)
   141     141       --         1.599 au  H             1.00      3 S               6
                        (      43.500 eV)
   142     142       --         0.445 au  H             1.00      1 P:x             6
                        (      12.103 eV)
   143     143       --         0.445 au  H             1.00      1 P:y             6
                        (      12.103 eV)
   144     144       --         0.445 au  H             1.00      1 P:z             6
                        (      12.103 eV)
   145     145       --         2.628 au  H             1.00      1 D:z2            6
                        (      71.505 eV)
   146     146       --         2.628 au  H             1.00      1 D:x2-y2         6
                        (      71.505 eV)
   147     147       --         2.628 au  H             1.00      1 D:xy            6
                        (      71.505 eV)
   148     148       --         2.628 au  H             1.00      1 D:xz            6
                        (      71.505 eV)
   149     149       --         2.628 au  H             1.00      1 D:yz            6
                        (      71.505 eV)



 ================================
 (Slater-type)  F U N C T I O N S  ***  (Basis and Fit)  ***
 ================================
  

 Atom Type    1  (O)
 ==============

 Valence Basis Sets:  10
 -----------------------
   1 S    9.800000
   1 S    6.800000
   2 S    7.580000
   2 S    2.880000
   2 S    1.720000
   2 P    4.080000
   2 P    2.080000
   2 P    1.120000
   3 D    2.000000
   4 F    3.000000

 Charge Fitting Sets (for the computation of the Coulomb Potential):  22
 -----------------------------------------------------------------------
   1 S   19.600000
   2 S   22.600000
   2 S   15.680000
   2 S   10.890000
   2 S    7.560000
   3 S    7.690000
   3 S    5.650000
   3 S    4.150000
   3 S    3.050000
   3 S    2.240000
   2 P   12.860000
   2 P    7.680000
   3 P    6.780000
   3 P    4.390000
   3 P    2.840000
   3 D    8.800000
   3 D    5.580000
   3 D    3.530000
   3 D    2.240000
   4 F    6.200000
   4 F    3.700000
   5 G    4.500000

 Atom Type    2  (Cl)
 ==============

 Valence Basis Sets:  14
 -----------------------
   1 S   20.300000
   1 S   15.250000
   2 S    6.250000
   2 S    4.450000
   2 P    8.850000
   2 P    5.050000
   3 S    3.450000
   3 S    2.300000
   3 S    1.600000
   3 P    3.350000
   3 P    2.050000
   3 P    1.200000
   3 D    2.000000
   4 F    2.000000

 Charge Fitting Sets (for the computation of the Coulomb Potential):  30
 -----------------------------------------------------------------------
   1 S   40.600000
   1 S   24.830000
   2 S   28.080000
   2 S   19.200000
   3 S   19.250000
   3 S   13.970000
   3 S   10.130000
   4 S    9.710000
   4 S    7.320000
   4 S    5.510000
   5 S    5.170000
   5 S    4.000000
   5 S    3.100000
   5 S    2.400000
   2 P   29.150000
   3 P   21.740000
   4 P   16.160000
   4 P    9.600000
   5 P    7.180000
   5 P    4.480000
   5 P    2.800000
   3 D   21.950000
   4 D   15.750000
   4 D    9.040000
   5 D    6.550000
   5 D    3.960000
   5 D    2.400000
   4 F    5.000000
   4 F    3.000000
   5 G    3.500000

 Atom Type    3  (H)
 ==============

 Valence Basis Sets:   5
 -----------------------
   1 S    0.690000
   1 S    0.920000
   1 S    1.580000
   2 P    1.250000
   3 D    2.500000

 Charge Fitting Sets (for the computation of the Coulomb Potential):  11
 -----------------------------------------------------------------------
   1 S    3.160000
   1 S    2.090000
   1 S    1.380000
   2 S    1.500000
   2 P    4.000000
   2 P    2.650000
   2 P    1.750000
   3 D    4.000000
   3 D    2.500000
   4 F    3.000000
   5 G    4.000000


 BAS: List of all Elementary Cartesian Basis Functions
 =====================================================

 The numbering in the list below (to the right of the function characteristics) is referred
 to in print-outs of MO eigenvectors and Mulliken populations in the BAS representation
 (as contrasted to the SFO representation).

 Notes:
 1. The functions are characterized by a polynomial prefactor (powers of x,y,z and r) and
    an exponential decay factor alpha.
 2. Since the basis sets are specific for an atom TYPE, the individual functions occur on
    all atoms of that type.
 3. The word 'Core' in the left margin signals that it is a Core Function (CF) : not a
    degree of freedom in the valence set, but only used to ensure orthogonalization of
    the other valence basis functions on the frozen Core Orbitals.


 (power of) X  Y  Z  R     Alpha  on Atom
            ==========     =====     ==========

 O                                    1    2    3    4
                                  ---------------------------------------------------------------------------
            0  0  0  0     9.800      1   31   61   91
            0  0  0  0     6.800      2   32   62   92
            0  0  0  1     7.580      3   33   63   93
            0  0  0  1     2.880      4   34   64   94
            0  0  0  1     1.720      5   35   65   95
            1  0  0  0     4.080      6   36   66   96
            0  1  0  0     4.080      7   37   67   97
            0  0  1  0     4.080      8   38   68   98
            1  0  0  0     2.080      9   39   69   99
            0  1  0  0     2.080     10   40   70  100
            0  0  1  0     2.080     11   41   71  101
            1  0  0  0     1.120     12   42   72  102
            0  1  0  0     1.120     13   43   73  103
            0  0  1  0     1.120     14   44   74  104
            2  0  0  0     2.000     15   45   75  105
            1  1  0  0     2.000     16   46   76  106
            1  0  1  0     2.000     17   47   77  107
            0  2  0  0     2.000     18   48   78  108
            0  1  1  0     2.000     19   49   79  109
            0  0  2  0     2.000     20   50   80  110
            3  0  0  0     3.000     21   51   81  111
            2  1  0  0     3.000     22   52   82  112
            2  0  1  0     3.000     23   53   83  113
            1  2  0  0     3.000     24   54   84  114
            1  1  1  0     3.000     25   55   85  115
            1  0  2  0     3.000     26   56   86  116
            0  3  0  0     3.000     27   57   87  117
            0  2  1  0     3.000     28   58   88  118
            0  1  2  0     3.000     29   59   89  119
            0  0  3  0     3.000     30   60   90  120

 Cl                                   5
                                  ---------------------------------------------------------------------------
            0  0  0  0    20.300    121
            0  0  0  0    15.250    122
            0  0  0  1     6.250    123
            0  0  0  1     4.450    124
            1  0  0  0     8.850    125
            0  1  0  0     8.850    126
            0  0  1  0     8.850    127
            1  0  0  0     5.050    128
            0  1  0  0     5.050    129
            0  0  1  0     5.050    130
            0  0  0  2     3.450    131
            0  0  0  2     2.300    132
            0  0  0  2     1.600    133
            1  0  0  1     3.350    134
            0  1  0  1     3.350    135
            0  0  1  1     3.350    136
            1  0  0  1     2.050    137
            0  1  0  1     2.050    138
            0  0  1  1     2.050    139
            1  0  0  1     1.200    140
            0  1  0  1     1.200    141
            0  0  1  1     1.200    142
            2  0  0  0     2.000    143
            1  1  0  0     2.000    144
            1  0  1  0     2.000    145
            0  2  0  0     2.000    146
            0  1  1  0     2.000    147
            0  0  2  0     2.000    148
            3  0  0  0     2.000    149
            2  1  0  0     2.000    150
            2  0  1  0     2.000    151
            1  2  0  0     2.000    152
            1  1  1  0     2.000    153
            1  0  2  0     2.000    154
            0  3  0  0     2.000    155
            0  2  1  0     2.000    156
            0  1  2  0     2.000    157
            0  0  3  0     2.000    158

 H                                    6
                                  ---------------------------------------------------------------------------
            0  0  0  0     0.690    159
            0  0  0  0     0.920    160
            0  0  0  0     1.580    161
            1  0  0  0     1.250    162
            0  1  0  0     1.250    163
            0  0  1  0     1.250    164
            2  0  0  0     2.500    165
            1  1  0  0     2.500    166
            1  0  1  0     2.500    167
            0  2  0  0     2.500    168
            0  1  1  0     2.500    169
            0  0  2  0     2.500    170

 Total number of charge fitting functions (nprimf)       492
 Total number of Cartesian basis functions (naos)        170
 Total number of Cartesian core functions  (ncos)          0

 ***************************************************************************************************



                                              ***********************
                                              *  T E C H N I C A L  *
                                              ***********************
  



 =============================================================
 P A R A L L E L I Z A T I O N  and  V E C T O R I Z A T I O N
 =============================================================
  
 Nr of parallel processes:                                4
 Maximum vector length in NumInt loops:                 128



 =====================
 S C F   U P D A T E S
 =====================
  
 Max. nr. of cycles:                               300
 Convergence criterion:                              0.0000010000
   secondary criterion:                              0.0010000000

 Mix parameter (when DIIS does not apply):           0.2000000000
 Mixed ADIIS+SDIIS will be used                  
    Max number of expansion vectors:                10
    Pure ADIIS when Max([F,P]) is above              0.1000000000
    Pure SDIIS when Max([F,P]) is below              0.0010000000
 Automatic ElectronSmearing (in case of problematic SCF convergence) disabled



 =================
 P R E C I S I O N  ***  (General: NumInt, NeglectFunctionTails, ...)  ***
 =================
  

 NumInt:           Target precision:                 6.0000000000
 -------           Initial precision:                6.0000000000
                   Min. precision (optimization):    6.0000000000

 Neglect Functions:          Basis functions:        0.1000000000E-07
 ------------------          Fit functions:          0.1000000000E-07



 ===========================
 L I N E A R   S C A L I N G
 ===========================
  

 Cut-off radii density fit:                        0.1000000000E-09
 Overlap cut-off criterion AO matrix elements:     0.1000000000E-07
 Cut-offs for Coulomb potential and fitted density:0.1000000000E-09
 Cut-off criterion for Coulomb multipole terms:    0.1000000000E-09
 Progressive Convergence parameter:                 0.000000000    
 ***************************************************************************************************



                                            ***************************
                                            *  C O M P U T A T I O N  *
                                            ***************************
  



 ==============================
 Double group spinor symmetries  ***  (Spin-Orbit)  ***
 ==============================
  

 The double group Lowdins are spinors adapted to the irreducible representations
 of the double group. These double group Lowdins are linear combinations of
 products of the single group Lowdins and the spinfunctions. The single group
 Lowdins are  orthonormalized symmetrized fragment orbitals (SFOs).
 The complex coefficients that are used in the linear combinations are also
 known as Clebsch-Gordan coefficients.
 The spin functions (alpha,beta) span irrep e1/2


          A * e 1/2 :      A1/2

  A1/2:1 = A.alpha
  A1/2:1 = A.beta

 The table summarizes which one-electron orbital irreps (single group) couple
 with spin to which spinor irreps (double group).
 The Clebsch-Gordan series for each direct product: orbital irrep times e1/2.
                  A
            -------
  A1/2           X


 dimension (equal to the max. nr. of electrons per spinor) of the double group irreps
 ------------------------------------------------------------------------------------
  A1/2           1

 Number of elements of the density matrix on this node (used, total):      3780     14535



 ===========================================
 Numerical Integration : Fuzzy Cells (Becke)
 ===========================================
  
 Becke grid quality: GOOD           
  
 Lebedev angular grid order:             min:  11 max:  31
 Nr. of radial points:                   min:  54 max:  80

 Total nr. of points:      79065
 Nr. of blocks:              618
 Block length:               128
 Nr. of dummy points:         39


 Test of Precision of the Numerical Integration Grid
 ===================================================

 Integral of the Total Core Density:                   0.00000000000000



 ========================
 Density Fitting (zlmFit)
 ========================
  
 ZlmFit Fit Quality: GOOD           
  
 Max L-expansion:                        min:   8 max:   9
 Nr. of radial interpolation points:     min:  78 max: 120



 ======================
 RI Hartree-Fock Scheme
 ======================
  
 Fit Set Quality     : GOOD
 Threshold Quality   : GOOD
 Integration Quality : GOOD
 Fit Generation Method : AUTO
 Response Quality    : DEFAULT
 Is Range Separated  :  F
 
 RIHartreeFock Dependency: number of modified vectors: 1



 =====
 S C F  ***  ScaSCF  ***
 =====
  
 Initial density matrix is calculated as sum of fragments

 CYCLE    1
 SCF Error: norm([F,P])=      9.609435419339, max([F,P])=      1.672225071451
 orbitals (Q,E):
 ---------------
 A1/2 :41...60       ( 1.00    -0.4879)  ( 1.00    -0.4879)  ( 1.00    -0.4724)  ( 1.00    -0.4724)
                     ( 1.00    -0.4378)  ( 1.00    -0.4378)  ( 1.00    -0.4178)  ( 1.00    -0.4178)
                     ( 1.00    -0.4056)  ( 1.00    -0.4056)  ( 0.00    -0.0558)  ( 0.00    -0.0558)
                     ( 0.00    -0.0156)  ( 0.00    -0.0156)  ( 0.00     0.0041)  ( 0.00     0.0041)
                     ( 0.00     0.0670)  ( 0.00     0.0670)  ( 0.00     0.0739)  ( 0.00     0.0739)

 CYCLE    2
   MIX coefficients:  0.8000  0.2000
 SCF Error: norm([F,P])=      1.070829056453, max([F,P])=      0.123137216376
 orbitals (Q,E):
 ---------------
 A1/2 :41...60       ( 1.00    -0.4715)  ( 1.00    -0.4715)  ( 1.00    -0.4597)  ( 1.00    -0.4597)
                     ( 1.00    -0.4165)  ( 1.00    -0.4165)  ( 1.00    -0.3980)  ( 1.00    -0.3980)
                     ( 1.00    -0.3796)  ( 1.00    -0.3796)  ( 0.00    -0.0625)  ( 0.00    -0.0625)
                     ( 0.00    -0.0238)  ( 0.00    -0.0238)  ( 0.00     0.0034)  ( 0.00     0.0034)
                     ( 0.00     0.0501)  ( 0.00     0.0501)  ( 0.00     0.0587)  ( 0.00     0.0587)

 CYCLE    3
  SDIIS (wt  0.000): -0.9250  1.9250
 A-DIIS (wt  1.000):  0.0000  1.0000
  DIIS coefficients:  0.0000  1.0000
 SCF Error: norm([F,P])=      0.522914451405, max([F,P])=      0.060752991981
 orbitals (Q,E):
 ---------------
 A1/2 :41...60       ( 1.00    -0.4363)  ( 1.00    -0.4363)  ( 1.00    -0.4332)  ( 1.00    -0.4332)
                     ( 1.00    -0.3733)  ( 1.00    -0.3733)  ( 1.00    -0.3523)  ( 1.00    -0.3523)
                     ( 1.00    -0.3216)  ( 1.00    -0.3216)  ( 0.00    -0.0548)  ( 0.00    -0.0548)
                     ( 0.00    -0.0242)  ( 0.00    -0.0242)  ( 0.00     0.0221)  ( 0.00     0.0221)
                     ( 0.00     0.0400)  ( 0.00     0.0400)  ( 0.00     0.0450)  ( 0.00     0.0450)

 CYCLE    4
  SDIIS (wt  0.000): -0.2316  0.9603  0.2713
 A-DIIS (wt  1.000):  0.0000  0.7166  0.2834
  DIIS coefficients:  0.0000  0.7166  0.2834
 SCF Error: norm([F,P])=      0.933868340592, max([F,P])=      0.106207933007
 orbitals (Q,E):
 ---------------
 A1/2 :41...60       ( 1.00    -0.4450)  ( 1.00    -0.4450)  ( 1.00    -0.4352)  ( 1.00    -0.4352)
                     ( 1.00    -0.3885)  ( 1.00    -0.3885)  ( 1.00    -0.3664)  ( 1.00    -0.3664)
                     ( 1.00    -0.3456)  ( 1.00    -0.3456)  ( 0.00    -0.0318)  ( 0.00    -0.0318)
                     ( 0.00    -0.0054)  ( 0.00    -0.0054)  ( 0.00     0.0452)  ( 0.00     0.0452)
                     ( 0.00     0.0715)  ( 0.00     0.0715)  ( 0.00     0.0829)  ( 0.00     0.0829)

 CYCLE    5
  SDIIS (wt  0.760): -0.0233  0.3501  0.0449  0.6283
 A-DIIS (wt  0.240):  0.0000  0.1030  0.0000  0.8970
  DIIS coefficients: -0.0177  0.2908  0.0341  0.6928
 SCF Error: norm([F,P])=      0.188462673353, max([F,P])=      0.024749349551
 orbitals (Q,E):
 ---------------
 A1/2 :41...60       ( 1.00    -0.4518)  ( 1.00    -0.4518)  ( 1.00    -0.4454)  ( 1.00    -0.4454)
                     ( 1.00    -0.3975)  ( 1.00    -0.3975)  ( 1.00    -0.3813)  ( 1.00    -0.3813)
                     ( 1.00    -0.3559)  ( 1.00    -0.3559)  ( 0.00    -0.0319)  ( 0.00    -0.0319)
                     ( 0.00    -0.0039)  ( 0.00    -0.0039)  ( 0.00     0.0474)  ( 0.00     0.0474)
                     ( 0.00     0.0792)  ( 0.00     0.0792)  ( 0.00     0.0897)  ( 0.00     0.0897)

 CYCLE    6
  SDIIS (wt  0.922):  0.0300 -0.0193 -0.0275  0.4017  0.6150
 A-DIIS (wt  0.078):  0.0000  0.0000  0.0000  0.0277  0.9723
  DIIS coefficients:  0.0277 -0.0178 -0.0254  0.3725  0.6429
 SCF Error: norm([F,P])=      0.051752737918, max([F,P])=      0.008729287636
 orbitals (Q,E):
 ---------------
 A1/2 :41...60       ( 1.00    -0.4529)  ( 1.00    -0.4529)  ( 1.00    -0.4435)  ( 1.00    -0.4435)
                     ( 1.00    -0.3980)  ( 1.00    -0.3980)  ( 1.00    -0.3783)  ( 1.00    -0.3783)
                     ( 1.00    -0.3566)  ( 1.00    -0.3566)  ( 0.00    -0.0304)  ( 0.00    -0.0304)
                     ( 0.00    -0.0033)  ( 0.00    -0.0033)  ( 0.00     0.0452)  ( 0.00     0.0452)
                     ( 0.00     0.0765)  ( 0.00     0.0765)  ( 0.00     0.0872)  ( 0.00     0.0872)

 CYCLE    7
  SDIIS (wt  0.994):  0.0038 -0.0034 -0.0132  0.1403  0.3239  0.5487
 A-DIIS (wt  0.006):  0.0000  0.0000  0.0000  0.0000  0.0000  1.0000
  DIIS coefficients:  0.0037 -0.0034 -0.0131  0.1394  0.3220  0.5514
 SCF Error: norm([F,P])=      0.008994285936, max([F,P])=      0.001587737476
 orbitals (Q,E):
 ---------------
 A1/2 :41...60       ( 1.00    -0.4518)  ( 1.00    -0.4518)  ( 1.00    -0.4430)  ( 1.00    -0.4430)
                     ( 1.00    -0.3969)  ( 1.00    -0.3969)  ( 1.00    -0.3781)  ( 1.00    -0.3781)
                     ( 1.00    -0.3555)  ( 1.00    -0.3555)  ( 0.00    -0.0303)  ( 0.00    -0.0303)
                     ( 0.00    -0.0029)  ( 0.00    -0.0029)  ( 0.00     0.0465)  ( 0.00     0.0465)
                     ( 0.00     0.0777)  ( 0.00     0.0777)  ( 0.00     0.0885)  ( 0.00     0.0885)

 CYCLE    8
  SDIIS (wt  1.000):  0.0009 -0.0025 -0.0035  0.0339  0.0939  0.2030  0.6743
  DIIS coefficients:  0.0009 -0.0025 -0.0035  0.0339  0.0939  0.2030  0.6743
 SCF Error: norm([F,P])=      0.001071038974, max([F,P])=      0.000135591286
 orbitals (Q,E):
 ---------------
 A1/2 :41...60       ( 1.00    -0.4518)  ( 1.00    -0.4518)  ( 1.00    -0.4431)  ( 1.00    -0.4431)
                     ( 1.00    -0.3970)  ( 1.00    -0.3970)  ( 1.00    -0.3781)  ( 1.00    -0.3781)
                     ( 1.00    -0.3555)  ( 1.00    -0.3555)  ( 0.00    -0.0304)  ( 0.00    -0.0304)
                     ( 0.00    -0.0030)  ( 0.00    -0.0030)  ( 0.00     0.0465)  ( 0.00     0.0465)
                     ( 0.00     0.0776)  ( 0.00     0.0776)  ( 0.00     0.0884)  ( 0.00     0.0884)

 CYCLE    9
  SDIIS (wt  1.000):  0.0003 -0.0019 -0.0004  0.0018  0.0155  0.0552  0.4822  0.4473
  DIIS coefficients:  0.0003 -0.0019 -0.0004  0.0018  0.0155  0.0552  0.4822  0.4473
 SCF Error: norm([F,P])=      0.000896859539, max([F,P])=      0.000128026806
 orbitals (Q,E):
 ---------------
 A1/2 :41...60       ( 1.00    -0.4519)  ( 1.00    -0.4519)  ( 1.00    -0.4431)  ( 1.00    -0.4431)
                     ( 1.00    -0.3970)  ( 1.00    -0.3970)  ( 1.00    -0.3781)  ( 1.00    -0.3781)
                     ( 1.00    -0.3556)  ( 1.00    -0.3556)  ( 0.00    -0.0304)  ( 0.00    -0.0304)
                     ( 0.00    -0.0030)  ( 0.00    -0.0030)  ( 0.00     0.0464)  ( 0.00     0.0464)
                     ( 0.00     0.0776)  ( 0.00     0.0776)  ( 0.00     0.0883)  ( 0.00     0.0883)

 CYCLE   10
  SDIIS (wt  1.000): -0.0001 -0.0001  0.0001 -0.0015 -0.0012  0.0035  0.0946  0.1287  0.7759
  DIIS coefficients: -0.0001 -0.0001  0.0001 -0.0015 -0.0012  0.0035  0.0946  0.1287  0.7759
 SCF Error: norm([F,P])=      0.000079847599, max([F,P])=      0.000010650020
 orbitals (Q,E):
 ---------------
 A1/2 :41...60       ( 1.00    -0.4519)  ( 1.00    -0.4519)  ( 1.00    -0.4431)  ( 1.00    -0.4431)
                     ( 1.00    -0.3970)  ( 1.00    -0.3970)  ( 1.00    -0.3781)  ( 1.00    -0.3781)
                     ( 1.00    -0.3556)  ( 1.00    -0.3556)  ( 0.00    -0.0304)  ( 0.00    -0.0304)
                     ( 0.00    -0.0030)  ( 0.00    -0.0030)  ( 0.00     0.0465)  ( 0.00     0.0465)
                     ( 0.00     0.0776)  ( 0.00     0.0776)  ( 0.00     0.0884)  ( 0.00     0.0884)

 CYCLE   11
  SDIIS (wt  1.000): -0.0000 -0.0000  0.0000 -0.0003 -0.0004 -0.0004  0.0029  0.0074  0.1323  0.8585
  DIIS coefficients: -0.0000 -0.0000  0.0000 -0.0003 -0.0004 -0.0004  0.0029  0.0074  0.1323  0.8585
 SCF Error: norm([F,P])=      0.000013335484, max([F,P])=      0.000001766225
 orbitals (Q,E):
 ---------------
 A1/2 :41...60       ( 1.00    -0.4519)  ( 1.00    -0.4519)  ( 1.00    -0.4431)  ( 1.00    -0.4431)
                     ( 1.00    -0.3970)  ( 1.00    -0.3970)  ( 1.00    -0.3781)  ( 1.00    -0.3781)
                     ( 1.00    -0.3556)  ( 1.00    -0.3556)  ( 0.00    -0.0304)  ( 0.00    -0.0304)
                     ( 0.00    -0.0030)  ( 0.00    -0.0030)  ( 0.00     0.0465)  ( 0.00     0.0465)
                     ( 0.00     0.0776)  ( 0.00     0.0776)  ( 0.00     0.0884)  ( 0.00     0.0884)

 CYCLE   12
  SDIIS (wt  1.000):  0.0000  0.0000  0.0000  0.0000 -0.0002 -0.0047 -0.0054 -0.0100  0.2408  0.7795
  DIIS coefficients:  0.0000  0.0000  0.0000  0.0000 -0.0002 -0.0047 -0.0054 -0.0100  0.2408  0.7795
 SCF Error: norm([F,P])=      0.000002890981, max([F,P])=      0.000000333257
 orbitals (Q,E):
 ---------------
 A1/2 :41...60       ( 1.00    -0.4519)  ( 1.00    -0.4519)  ( 1.00    -0.4431)  ( 1.00    -0.4431)
                     ( 1.00    -0.3970)  ( 1.00    -0.3970)  ( 1.00    -0.3781)  ( 1.00    -0.3781)
                     ( 1.00    -0.3556)  ( 1.00    -0.3556)  ( 0.00    -0.0304)  ( 0.00    -0.0304)
                     ( 0.00    -0.0030)  ( 0.00    -0.0030)  ( 0.00     0.0465)  ( 0.00     0.0465)
                     ( 0.00     0.0776)  ( 0.00     0.0776)  ( 0.00     0.0884)  ( 0.00     0.0884)

 SCF CONVERGED

 CYCLE   13
 ***************************************************************************************************



                                                *******************
                                                *  R E S U L T S  *
                                                *******************
  
  
 Hartree-Fock exchange energy:  -60.9827447517092
 *** Using FIT density in Focky
  SDIIS (wt  1.000): -0.0000  0.0000  0.0000 -0.0000 -0.0005 -0.0005 -0.0026  0.0225  0.1465  0.8347
  DIIS coefficients: -0.0000  0.0000  0.0000 -0.0000 -0.0005 -0.0005 -0.0026  0.0225  0.1465  0.8347
 SCF Error: norm([F,P])=      0.000000525171, max([F,P])=      0.000000073671

 Orbital Energies, per Irrep and Spin:
 ======================================
                        Occup              E (au)              E (eV)       Diff (eV) with prev. cycle
                        -----      --------------------        ------       --------------------------
 A1/2
              41        1.000     -0.45185648402091E+00       -12.296               1.21E-06
              42        1.000     -0.45185648401698E+00       -12.296               1.21E-06
              43        1.000     -0.44308507077177E+00       -12.057               7.75E-07
              44        1.000     -0.44308507076754E+00       -12.057               7.75E-07
              45        1.000     -0.39700768608473E+00       -10.803               7.42E-07
              46        1.000     -0.39700768607916E+00       -10.803               7.42E-07
              47        1.000     -0.37812941032631E+00       -10.289               9.99E-07
              48        1.000     -0.37812941032323E+00       -10.289               9.99E-07
              49        1.000     -0.35556262096111E+00        -9.675               1.16E-06
              50        1.000     -0.35556262096017E+00        -9.675               1.16E-06
              51        0.000     -0.30383835047031E-01        -0.827
              52        0.000     -0.30383835041474E-01        -0.827
              53        0.000     -0.30195808704632E-02        -0.082
              54        0.000     -0.30195808666463E-02        -0.082
              55        0.000      0.46452196336173E-01         1.264
              56        0.000      0.46452196336984E-01         1.264
              57        0.000      0.77620074263136E-01         2.112
              58        0.000      0.77620074277215E-01         2.112
              59        0.000      0.88352167966005E-01         2.404
              60        0.000      0.88352167970601E-01         2.404
  
 HOMO :       50 A1/2             -0.35556262096017E+00
 LUMO :       51 A1/2             -0.30383835047031E-01
  


 All Electron Calculation, thus no Orbital Energies of the Core Orbitals are calculated


 Fit test: (difference of exact and fit density, squared integrated, result summed over spins)
         Sum-of-Fragments:                             0.00000000784632
         Orthogonalized Fragments:                     0.00005189824127
         SCF:                                          0.00002254669219



 ==========================
 Electron Density at Nuclei
 ==========================
  
 The electron density is calculated at points on a small sphere around the center of a nucleus.
 The printed electron density is the average electron density on these points.
 The radius of the sphere is the printed approximate finite nuclear radius.
 Note: density is calculated in the Dirac picture

         Atom        Nuclear Radius (Angstrom)             Electron Density (a.u.)
         ----        -------------------------             -----------------------
     1)   O                 0.0000345546                              313.17000
     2)   Cl                0.0000426624                             3298.10713
     3)   O                 0.0000345546                              313.16441
     4)   O                 0.0000345546                              313.16480
     5)   O                 0.0000345546                              312.85142
     6)   H                 0.0000181514                                0.45135



 =======================================
 M U L L I K E N   P O P U L A T I O N S
 =======================================
  
 The survey below gives for each atom:
 a) the total charge (Z minus electrons)
 b) the net spin polarization (nr of electrons spin-A minus spin-B)
 c) for each spin the atomic electron valence density (integrated) per L-value.

 Atom              Charge    Spin density          S         P         D         F
 ----              ------    ------------       ------    ------    ------    ------
 1 O              -0.3542                       3.8383    4.4385    0.0693    0.0081
 2 Cl              1.1951                       5.2252    8.7862    1.5363    0.2571
 3 O              -0.3719                       3.8396    4.4554    0.0689    0.0079
 4 O              -0.3720                       3.8397    4.4554    0.0689    0.0079
 5 O              -0.3566                       3.7976    4.4943    0.0593    0.0054
 6 H               0.2595                       0.6139    0.1136    0.0130    0.0000

 Populations of individual BAS functions
 ----------------------------------------
 1 O            0.6738  1.2861  0.0089  1.0505  0.8189  0.2310  0.2720  0.2889  0.7806  0.9177
                0.9666  0.2193  0.3698  0.3926  0.0295  0.0195  0.0177  0.0005  0.0049 -0.0029
                0.0160  0.0113  0.0113 -0.0053  0.0010 -0.0075 -0.0059 -0.0007 -0.0033 -0.0087
 3 O            0.6738  1.2859  0.0092  1.0493  0.8215  0.2534  0.2742  0.2655  0.8493  0.9197
                0.8869  0.2938  0.3853  0.3272  0.0165  0.0129  0.0185  0.0003  0.0108  0.0099
                0.0055  0.0052  0.0050 -0.0040  0.0015  0.0012 -0.0063 -0.0030  0.0025  0.0004
 4 O            0.6738  1.2859  0.0092  1.0493  0.8215  0.2893  0.2811  0.2226  0.9631  0.9411
                0.7516  0.4025  0.4064  0.1977 -0.0029  0.0023  0.0195 -0.0034  0.0197  0.0336
               -0.0085 -0.0028 -0.0080 -0.0027  0.0005  0.0134 -0.0087 -0.0087  0.0136  0.0198
 5 O            0.6792  1.2777  0.0130  1.0305  0.7972  0.2658  0.2086  0.3115  0.9441  0.7901
                1.0551  0.3185  0.1648  0.4358  0.0109  0.0157  0.0053  0.0300  0.0101 -0.0127
                0.0027  0.0004  0.0029  0.0060  0.0003 -0.0075  0.0094  0.0104 -0.0075 -0.0117
 2 Cl           0.5990  1.3556  1.7597  0.2196  0.7315  0.7294  0.7313  1.2715  1.2752  1.2718
                0.5112  0.8877 -0.1075  0.2133  0.1841  0.2121  0.7875  0.8802  0.7918 -0.0773
               -0.1334 -0.0827  0.2381  0.2526  0.3580  0.1989  0.2543  0.2344  0.0295  0.0219
                0.0390  0.0220  0.0284  0.0442  0.0090  0.0126  0.0263  0.0242
 6 H           -0.0374  0.2894  0.3619  0.0378  0.0336  0.0422  0.0106  0.0031  0.0035 -0.0001
                0.0014 -0.0054

 Gross Charges per Atom (Z minus electrons)
 ==========================================
            -0.3542    1.1951   -0.3719   -0.3720   -0.3566    0.2595
 Net Total:  0.00000000


 Atom-Atom Population Matrix (off-diagonal elements not doubled)
 ===============================================================

     1 :     7.8288
     2 :     0.6417   13.6271
     3 :    -0.0396    0.6362    7.8557
     4 :    -0.0396    0.6360   -0.0436    7.8560
     5 :    -0.0407    0.2885   -0.0366   -0.0365    7.7907
     6 :     0.0035   -0.0246   -0.0003   -0.0003    0.3912    0.3710



 =================================================
 H I R S H F E L D   C H A R G E   A N A L Y S I S
 =================================================
  
 For each fragment: the (numerical) integral of rho(scf) * rho(fragment)/rho(sum-of-fragments)
 (nuclear charges are included, electrons are counted negative)

 The fragments and their ordering are defined in the early G E O M E T R Y output section.
 If you use single-atom fragments, this usually implies that all atoms of the same
 chemical type are grouped together. This may not be the order in which you listed them
 in the input file!

  Fragment                       Charge
 ------------------------------------------
    1  O                        -0.2069
    2  O                        -0.2195
    3  O                        -0.2196
    4  O                        -0.1597
    5  Cl                        0.6062
    6  H                         0.1997

 Sum of these charges =          0.00005275
 (accuracy NumInt/Tails)



 =============================
 V O R O N O I   C H A R G E S
 =============================
  
 For each atom: the (numerical) integral of the total electronic charge density in its Voronoi cell,
 i.e. the region of space that is closer to that atom than to any other atom.
 (cf. Wigner-Seitz cells in crystals)

 Within the Voronoi cell the subintegrals over the atomic sphere and the remaining part are evaluated
 separately to give the numbers of electrons (negative charge) in these regions.
 The net total charge in the cell (including the nuclear charge) is also given.

 Values are provided for
    a) the Initial (sum-of-fragments) density
    b) the Orthogonalized-Fragments density
    c) the SCF density
    d) the Voronoi Deformation Density (VDD): the difference SCF-Initial for the complete atomic cell

  Atom                Initial                    OrthFrag                   SCF
             Sphere RestCell NetTotal   Sphere RestCell NetTotal   Sphere RestCell NetTotal      VDD
 -------     ------------------------   ------------------------   ------------------------    -----
    1 O      -2.797   -5.684   -0.481   -2.910   -5.457   -0.367   -2.822   -5.893   -0.715   -0.233
    2 Cl    -10.144   -5.051    1.805  -10.280   -5.361    1.359  -10.078   -4.461    2.461    0.656
    3 O      -2.797   -5.680   -0.477   -2.909   -5.454   -0.363   -2.822   -5.902   -0.724   -0.247
    4 O      -2.797   -5.672   -0.469   -2.909   -5.448   -0.357   -2.822   -5.894   -0.716   -0.247
    5 O      -2.797   -5.015    0.188   -2.936   -4.899    0.165   -2.823   -5.145    0.032   -0.156
    6 H      -0.094   -1.471   -0.565   -0.093   -1.344   -0.437   -0.120   -1.218   -0.338    0.227
 ---------------------------------------------------------------------------------------------------
 Total NetCharge:               0.000                      0.000                      0.000    0.000
 (accuracy NumInt/Tails)

 Remark: the 'NetTotal' Voronoi charges often do not match the Mulliken and/or Hirshfeld charges very
 well. This is caused by the fact that chemically different atoms are not treated in accordance with
 their relative sizes. (Voronoi cells are defined by boundary planes halfway between the atoms.)
 However, the CHANGES in charge, comparing 'Initial' to 'SCF' for instance, do give a fair indication
 of the flow of charge caused by the relaxation from sum-of-fragments to self-consistency.

 Warning: the absolute accuracy of the VDD charges obtained using the Fuzzy Cells (Becke) integration
 scheme is much poorer than the one obtained with an 'equivalent' Voronoi integration grid. 



 =================================================================
 M U L T I P O L E   D E R I V E D   C H A R G E   A N A L Y S I S
 =================================================================

 This charge analysis uses the atomic multipoles (obtained from the fitted density) up to some level X,
 and reconstructs these multipoles exactly (up to level X) by distributing charges over all atoms.
 This is achieved by using Lagrange multipliers and a weight function to keep the multipoles local.

 Dummy atoms can be included (by setting INCDUM in MDC-block to 1) to obtain a fractional charge.
 This is generally useful and necessary only for small symmetrical molecules, when there are not
 enough degrees of freedom to reconstruct the multipoles.

 Since the atomic multipoles are reconstructed up to level X,
 the molecular multipoles are represented also up to level X.
 The recommended level is to reconstruct up to quadrupole : -> MDC-q charges.

 See: M. Swart, P.Th. van Duijnen, J.G. Snijders, J.Comput.Chem., (2001), p. 79-88.

 ------------------------------------------------------------- 
 Atomic electronic multipole moments from SCF equations (a.u.)
 ------------------------------------------------------------- 

   atom        charge        dip-x     dip-y     dip-z      quad-xx   quad-xy   quad-xz   quad-yy   quad-yz   quad-zz
 --------------------------------------------------------------------------------------------------------------------
    1 O     -0.678871     0.202506 -0.056549 -0.055012     0.335836 -0.176276 -0.105768 -0.084938  0.035728 -0.250899
    2 Cl     2.351445     0.027680  0.027292 -0.012463     0.090535  0.014397 -0.009748 -0.144312  0.013194  0.053777
    3 O     -0.699928    -0.149708 -0.075141 -0.136431     0.129139  0.123332  0.228596 -0.134343  0.106336  0.005203
    4 O     -0.699896    -0.042370 -0.028157  0.210086    -0.236049  0.009315 -0.118288 -0.214454 -0.069092  0.450503
    5 O     -0.414300    -0.268490  0.303632  0.041302     0.280288 -0.246469 -0.143807  0.235698  0.001565 -0.515986
    6 H      0.141551    -0.088123  0.093640  0.014377     0.095669 -0.059216 -0.032609 -0.006705  0.009616 -0.088964

 --------------------------------------- 
 Multipole derived atomic charges (a.u.)
 --------------------------------------- 

 The MDC-m charges are just the Monopole terms in the multipole expansion, while for the MDC-d charges
 also the Dipoles are reconstructed. The usually preferred charges are the MDC-q charges.
 These reconstruct the Monopoles, Dipoles and Quadrupoles (both atomic AND molecular).

        Atom    Level:     MDC-m        MDC-d        MDC-q
 ---------------------------------------------------------
     1     O           -0.678871    -0.516138    -1.168752
     2     Cl           2.351445     1.779688     4.340099
     3     O           -0.699928    -0.556936    -1.250768
     4     O           -0.699896    -0.556996    -1.302254
     5     O           -0.414300    -0.533177    -1.045428
     6     H            0.141551     0.383560     0.427103

 ------------------------------------------------ 
 Average absolute deviations in atomic multipoles
 ------------------------------------------------ 

 Stated here are the average differences between the atomic multipoles
 and the reconstructed atomic multipoles (from the distributed charges).
 If these values are not zero, this means there are not enough degrees of freedom,
 to be able to reconstruct the atomic multipoles. (This usually happens only
 for small and/or highly symmetric molecules). If this is the case, one could add
 dummy atoms as extra point charges (and setting INCDUM in MDC-block to 1).

 Level:                                 MDC-d        MDC-q
 ---------------------------------------------------------
 Charge   (a.u.)                       0.0000       0.0000
 Dipole   (Debye)                      0.0000       0.2141
 Quad.    (a.u.)                       0.2665       0.0249

 --------------------------------------- 
 Represented molecular multipole moments
 --------------------------------------- 

 Given here are the Molecular multipole moments from the atomic charges, and from the Fit Density.
 Note that the atomic charges represent the latter, NOT the ones from the Exact density.

            Q (a.u.)             Dipole moment (Debye)                                          Quadrupole moment (a.u.)
                                 x         y         z              xx        xy        xz        yy        yz        zz
------------------------------------------------------------------------------------------------------------------------
MDC-m        -0.0000       -0.4147    1.7324   -0.1087         -2.4197   -1.0299    0.1223    4.9586   -0.9218   -2.5389
MDC-d         0.0000       -1.2242    2.4052    0.0486         -2.8738   -3.2582    0.3908    6.4362   -0.6379   -3.5624
MDC-q        -0.0000       -1.2145    2.4113   -0.2630         -3.5627   -4.0036    0.4654    8.4422   -0.8706   -4.8795
 
Fit.Dens.    -0.0000       -1.2242    2.4052    0.0486         -2.5618   -3.2632    0.3834    6.1864   -0.6128   -3.6246



 =============
 Dipole Moment  ***  (Debye)  ***
 =============
  
 Vector   :        -1.22450321      2.40619664      0.04851790
 Magnitude:         2.70028598

 This molecular dipole moment is calculated with analytic integration



 =========================================
 Quadrupole Moment (Buckingham convention)  ***  (a.u.)  ***
 =========================================
  
      quad-xx        quad-xy        quad-xz        quad-yy        quad-yz        quad-zz
     -2.56263471    -3.43131825     0.29266794     6.18825686    -0.56441603    -3.62562215

 This molecular quadrupole moment is calculated with analytic integration



 ===========================
 B O N D I N G   E N E R G Y  ***  (decomposition)  ***
 ===========================
  
*** IMPORTANT NOTE ***

The bond energy is computed as an energy difference between molecule and
fragments. In particular when the fragments are single atoms, they are usually
computed as SPHERICALLY SYMMETRIC and SPIN-RESTRICTED. Obviously, this usually
does NOT represent the true atomic groundstate.

To obtain the 'real' bond energy, (atomic) correction terms must be applied
for the true (multiplet) fragment ground state. See ref: E.J.Baerends,
V.Branchadell, M.Sodupe, Chem.Phys.Lett.265 (1997) 481

General theoretical background on the bond energy decomposition scheme used
here (Morokuma-Ziegler) can be found in the review paper:
F.M. Bickelhaupt and E.J. Baerends,
"Kohn-Sham Density Functional Theory: Predicting and Understanding Chemistry"
In: Rev. Comput. Chem.; Lipkowitz, K. B. and Boyd, D. B., Eds.;
Wiley-VCH: New York, 2000, Vol. 15, 1-86.

Symbols used in the Bickelhaupt-Baerends (BB) paper are given below to make
the direct connection to that paper, where detailed explanations can be found
on the meaning of the various terms.
The Spin-Orbit term is calculated as the expectation value of the spin-orbit
 operator summed over all occupied spinors.


                                                   hartree              eV         kcal/mol           kJ/mol
                                      --------------------     -----------       ----------      -----------
  pauli hf:                              0.392305615602053         10.6752           246.18          1030.00
  elstat hf:                            -0.818539207359507        -22.2736          -513.64         -2149.07

Pauli Repulsion
  Kinetic (Delta T^0):                  19.952334956652628        542.9307         12520.28         52384.85
  Delta V^Pauli Coulomb:               -11.972015387095027       -325.7751         -7512.55        -31432.52
  Delta V^Pauli Hybrid-X:               -1.482941041438615        -40.3529          -930.56         -3893.46
  Delta V^Pauli Hybrid-C:               -0.160361546271431         -4.3637          -100.63          -421.03
  Delta V^Pauli HF-Exchange:            -0.426233591757454        -11.5984          -267.47         -1119.08
                                      --------------------     -----------       ----------      -----------
  Total Pauli Repulsion:                 5.910783390090103        160.8406          3709.07         15518.76
 (Total Pauli Repulsion =
  Delta E^Pauli in BB paper)

Steric Interaction
  Pauli Repulsion (Delta E^Pauli):       5.910783390090103        160.8406          3709.07         15518.76
  Electrostatic Interaction:            -1.767089304114541        -48.0849         -1108.87         -4639.49
 (Electrostatic Interaction =
  Delta V_elstat in the BB paper)
                                      --------------------     -----------       ----------      -----------
  Total Steric Interaction:              4.143694085975562        112.7557          2600.21         10879.27
 (Total Steric Interaction =
  Delta E^0 in the BB paper)

Orbital Interactions
  A:                                    -5.176987845139545       -140.8730         -3248.61        -13592.18
  (Hybrid part) HF exchange:            -0.316379050836150         -8.6091          -198.53          -830.65
  Spin-Orbit:                           -0.001393888713033         -0.0379            -0.87            -3.66
                                      --------------------     -----------       ----------      -----------
  Total Orbital Interactions:           -5.494760784688729       -149.5200         -3448.01        -14426.49

Alternative Decomposition Orb.Int.
  Kinetic:                             -18.769436039195863       -510.7423        -11778.00        -49279.15
  Coulomb:                              13.045754854486269        354.9931          8186.34         34251.62
  XC+HF:                                 0.230314288733899          6.2672           144.52           604.69
  XC only:                               0.546693339570050         14.8763           343.06          1435.34
  HF Orbital:                           -0.316379050836150         -8.6091          -198.53          -830.65
  Spin-Orbit:                           -0.001393888713033         -0.0379            -0.87            -3.66
                                      --------------------     -----------       ----------      -----------
  Total Orbital Interactions:           -5.494760784688728       -149.5200         -3448.01        -14426.49

  Residu (E=Steric+OrbInt+Res):         -0.000002026142488         -0.0001            -0.00            -0.01
  Dispersion Energy:                    -0.003508052342906         -0.0955            -2.20            -9.21

Total Bonding Energy:                   -1.354576777198562        -36.8599          -850.01         -3556.44


Summary of Bonding Energy (energy terms are taken from the energy decomposition above)
======================================================================================

  Electrostatic Energy:                 -1.767089304114541        -48.0849         -1108.87         -4639.49
  Kinetic Energy:                        1.182898917456765         32.1883           742.28          3105.70
  Coulomb (Steric+OrbInt) Energy:        1.073737441248753         29.2179           673.78          2819.10
  XC Energy:                            -1.839221890733600        -50.0478         -1154.13         -4828.88
  Spin-Orbit:                           -0.001393888713033         -0.0379            -0.87            -3.66
  Dispersion Energy:                    -0.003508052342906         -0.0955            -2.20            -9.21
                                      --------------------     -----------       ----------      -----------
  Total Bonding Energy:                 -1.354576777198563        -36.8599          -850.01         -3556.44


Correction terms (incorporated in energies above; only for test purposes):

1. Indication of fit-quality: 1st-order fit-correction used in the energy (hartree):   0.0000048229
2. Electrostatic (Fit correction):   0.0000000000



 =======================================================================
 Electrostatic potential at the Nuclei due to electrons and other nuclei
 =======================================================================
  
         Atom                  Potential
         ----                  ---------
     1)   O                  22.33294807
     2)   Cl                 64.49449812
     3)   O                  22.33188226
     4)   O                  22.33191095
     5)   O                  22.28057771
     6)   H                   0.88865754
 Mulliken charges used for AMS results%charges...


    =====================
     CALCULATION RESULTS
    =====================

Energy (hartree)            -1.35457678


--------------
Atomic charges
--------------
  Index   Atom    Charge
      1      O   -0.3542
      2     Cl    1.1951
      3      O   -0.3719
      4      O   -0.3720
      5      O   -0.3566
      6      H    0.2595


Dipole moment vector    (Debye):    -1.22450321    2.40619664    0.04851790
              magnitude (Debye):     2.70028598


-----------------------
Molecular orbitals info
-----------------------
n orbitals:              298
n spin:                    1

Note: only printing virtual orbitals with
      energy smaller than HOMO + 100. eV

HOMO (eV):              -9.6754
LUMO (eV):              -0.8268
HOMO-LUMO gap (eV):      8.8486

   Index   Energy (eV)    Occupation
     186       82.6853         0.000       
     185       82.6853         0.000       
     184       77.7205         0.000       
     183       77.7205         0.000       
     182       77.3233         0.000       
     181       77.3233         0.000       
     180       74.8048         0.000       
     179       74.8048         0.000       
     178       73.7955         0.000       
     177       73.7955         0.000       
     176       72.6102         0.000       
     175       72.6102         0.000       
     174       70.6897         0.000       
     173       70.6897         0.000       
     172       68.9810         0.000       
     171       68.9810         0.000       
     170       66.3504         0.000       
     169       66.3504         0.000       
     168       65.5648         0.000       
     167       65.5648         0.000       
     166       64.3156         0.000       
     165       64.3156         0.000       
     164       63.1302         0.000       
     163       63.1302         0.000       
     162       62.1018         0.000       
     161       62.1018         0.000       
     160       61.9922         0.000       
     159       61.9922         0.000       
     158       59.8885         0.000       
     157       59.8885         0.000       
     156       59.3413         0.000       
     155       59.3413         0.000       
     154       59.0969         0.000       
     153       59.0969         0.000       
     152       56.8330         0.000       
     151       56.8330         0.000       
     150       51.5414         0.000       
     149       51.5414         0.000       
     148       50.4444         0.000       
     147       50.4444         0.000       
     146       50.1944         0.000       
     145       50.1944         0.000       
     144       47.8796         0.000       
     143       47.8796         0.000       
     142       46.1863         0.000       
     141       46.1863         0.000       
     140       46.0595         0.000       
     139       46.0595         0.000       
     138       44.7698         0.000       
     137       44.7698         0.000       
     136       42.7205         0.000       
     135       42.7205         0.000       
     134       42.2921         0.000       
     133       42.2921         0.000       
     132       40.5703         0.000       
     131       40.5703         0.000       
     130       40.0235         0.000       
     129       40.0235         0.000       
     128       39.8205         0.000       
     127       39.8205         0.000       
     126       38.3213         0.000       
     125       38.3213         0.000       
     124       35.3627         0.000       
     123       35.3627         0.000       
     122       33.3419         0.000       
     121       33.3419         0.000       
     120       32.9097         0.000       
     119       32.9097         0.000       
     118       32.4258         0.000       
     117       32.4258         0.000       
     116       31.6523         0.000       
     115       31.6523         0.000       
     114       31.6321         0.000       
     113       31.6321         0.000       
     112       30.8592         0.000       
     111       30.8592         0.000       
     110       28.8749         0.000       
     109       28.8749         0.000       
     108       24.8254         0.000       
     107       24.8254         0.000       
     106       22.6718         0.000       
     105       22.6718         0.000       
     104       22.6438         0.000       
     103       22.6438         0.000       
     102       18.8081         0.000       
     101       18.8081         0.000       
     100       17.1091         0.000       
      99       17.1091         0.000       
      98       16.9192         0.000       
      97       16.9192         0.000       
      96       16.5419         0.000       
      95       16.5419         0.000       
      94       16.2043         0.000       
      93       16.2043         0.000       
      92       15.8812         0.000       
      91       15.8812         0.000       
      90       15.8234         0.000       
      89       15.8234         0.000       
      88       15.2071         0.000       
      87       15.2071         0.000       
      86       13.6019         0.000       
      85       13.6019         0.000       
      84       11.8368         0.000       
      83       11.8368         0.000       
      82       11.5411         0.000       
      81       11.5411         0.000       
      80       11.1040         0.000       
      79       11.1040         0.000       
      78       10.2955         0.000       
      77       10.2955         0.000       
      76        9.8880         0.000       
      75        9.8880         0.000       
      74        9.8843         0.000       
      73        9.8843         0.000       
      72        9.6722         0.000       
      71        9.6722         0.000       
      70        8.3122         0.000       
      69        8.3122         0.000       
      68        6.7570         0.000       
      67        6.7570         0.000       
      66        6.7468         0.000       
      65        6.7468         0.000       
      64        6.5187         0.000       
      63        6.5187         0.000       
      62        5.4736         0.000       
      61        5.4736         0.000       
      60        2.4042         0.000       
      59        2.4042         0.000       
      58        2.1121         0.000       
      57        2.1121         0.000       
      56        1.2640         0.000       
      55        1.2640         0.000       
      54       -0.0822         0.000       
      53       -0.0822         0.000       
      52       -0.8268         0.000       
      51       -0.8268         0.000 < LUMO
      50       -9.6754         1.000 < HOMO
      49       -9.6754         1.000       
      48      -10.2894         1.000       
      47      -10.2894         1.000       
      46      -10.8031         1.000       
      45      -10.8031         1.000       
      44      -12.0570         1.000       
      43      -12.0570         1.000       
      42      -12.2956         1.000       
      41      -12.2956         1.000       
      40      -12.4039         1.000       
      39      -12.4039         1.000       
      38      -12.8803         1.000       
      37      -12.8803         1.000       
      36      -14.7309         1.000       
      35      -14.7309         1.000       
      34      -16.5144         1.000       
      33      -16.5144         1.000       
      32      -16.6400         1.000       
      31      -16.6400         1.000       
      30      -18.1286         1.000       
      29      -18.1286         1.000       
      28      -21.0736         1.000       
      27      -21.0736         1.000       
      26      -31.3820         1.000       
      25      -31.3820         1.000       
      24      -31.4232         1.000       
      23      -31.4232         1.000       
      22      -31.4661         1.000       
      21      -31.4661         1.000       
      20      -37.8110         1.000       
      19      -37.8110         1.000       
      18     -206.4070         1.000       
      17     -206.4070         1.000       
      16     -206.4475         1.000       
      15     -206.4475         1.000       
      14     -208.1206         1.000       
      13     -208.1206         1.000       
      12     -270.4051         1.000       
      11     -270.4051         1.000       
      10     -525.0028         1.000       
       9     -525.0028         1.000       
       8     -525.0297         1.000       
       7     -525.0297         1.000       
       6     -525.0304         1.000       
       5     -525.0304         1.000       
       4     -526.2578         1.000       
       3     -526.2578         1.000       
       2    -2788.1068         1.000       
       1    -2788.1068         1.000       

AMS application finished. Exiting.
NORMAL TERMINATION
     Total cpu time:      57.98
  Total system time:       0.83
 Total elapsed time:      67.45
