 Entering Gaussian System, Link 0=/home/pcmt/gaussian/g16.C.01/g16/g16
 Initial command:
 /home/pcmt/gaussian/g16.C.01/g16/l1.exe "/state/partition2/vallet/1081294.phlam-s-sakura/Gau-41816.inp" -scrdir="/state/partition2/vallet/1081294.phlam-s-sakura/"
 Entering Link 1 = /home/pcmt/gaussian/g16.C.01/g16/l1.exe PID=     41817.
  
 Copyright (c) 1988-2019, Gaussian, Inc.  All Rights Reserved.
  
 This is part of the Gaussian(R) 16 program.  It is based on
 the Gaussian(R) 09 system (copyright 2009, Gaussian, Inc.),
 the Gaussian(R) 03 system (copyright 2003, Gaussian, Inc.),
 the Gaussian(R) 98 system (copyright 1998, Gaussian, Inc.),
 the Gaussian(R) 94 system (copyright 1995, Gaussian, Inc.),
 the Gaussian 92(TM) system (copyright 1992, Gaussian, Inc.),
 the Gaussian 90(TM) system (copyright 1990, Gaussian, Inc.),
 the Gaussian 88(TM) system (copyright 1988, Gaussian, Inc.),
 the Gaussian 86(TM) system (copyright 1986, Carnegie Mellon
 University), and the Gaussian 82(TM) system (copyright 1983,
 Carnegie Mellon University). Gaussian is a federally registered
 trademark of Gaussian, Inc.
  
 This software contains proprietary and confidential information,
 including trade secrets, belonging to Gaussian, Inc.
  
 This software is provided under written license and may be
 used, copied, transmitted, or stored only in accord with that
 written license.
  
 The following legend is applicable only to US Government
 contracts under FAR:
  
                    RESTRICTED RIGHTS LEGEND
  
 Use, reproduction and disclosure by the US Government is
 subject to restrictions as set forth in subparagraphs (a)
 and (c) of the Commercial Computer Software - Restricted
 Rights clause in FAR 52.227-19.
  
 Gaussian, Inc.
 340 Quinnipiac St., Bldg. 40, Wallingford CT 06492
  
  
 ---------------------------------------------------------------
 Warning -- This program may not be used in any manner that
 competes with the business of Gaussian, Inc. or will provide
 assistance to any competitor of Gaussian, Inc.  The licensee
 of this program is prohibited from giving any competitor of
 Gaussian, Inc. access to this program.  By using this program,
 the user acknowledges that Gaussian, Inc. is engaged in the
 business of creating and licensing software in the field of
 computational chemistry and represents and warrants to the
 licensee that it is not a competitor of Gaussian, Inc. and that
 it will not use this program in any manner prohibited above.
 ---------------------------------------------------------------
  

 Cite this work as:
 Gaussian 16, Revision C.01,
 M. J. Frisch, G. W. Trucks, H. B. Schlegel, G. E. Scuseria, 
 M. A. Robb, J. R. Cheeseman, G. Scalmani, V. Barone, 
 G. A. Petersson, H. Nakatsuji, X. Li, M. Caricato, A. V. Marenich, 
 J. Bloino, B. G. Janesko, R. Gomperts, B. Mennucci, H. P. Hratchian, 
 J. V. Ortiz, A. F. Izmaylov, J. L. Sonnenberg, D. Williams-Young, 
 F. Ding, F. Lipparini, F. Egidi, J. Goings, B. Peng, A. Petrone, 
 T. Henderson, D. Ranasinghe, V. G. Zakrzewski, J. Gao, N. Rega, 
 G. Zheng, W. Liang, M. Hada, M. Ehara, K. Toyota, R. Fukuda, 
 J. Hasegawa, M. Ishida, T. Nakajima, Y. Honda, O. Kitao, H. Nakai, 
 T. Vreven, K. Throssell, J. A. Montgomery, Jr., J. E. Peralta, 
 F. Ogliaro, M. J. Bearpark, J. J. Heyd, E. N. Brothers, K. N. Kudin, 
 V. N. Staroverov, T. A. Keith, R. Kobayashi, J. Normand, 
 K. Raghavachari, A. P. Rendell, J. C. Burant, S. S. Iyengar, 
 J. Tomasi, M. Cossi, J. M. Millam, M. Klene, C. Adamo, R. Cammi, 
 J. W. Ochterski, R. L. Martin, K. Morokuma, O. Farkas, 
 J. B. Foresman, and D. J. Fox, Gaussian, Inc., Wallingford CT, 2019.
 
 ******************************************
 Gaussian 16:  ES64L-G16RevC.01  3-Jul-2019
                15-Nov-2025 
 ******************************************
 %mem=16000Mb
 %NProc=8
 Will use up to    8 processors via shared memory.
 %oldchk=HClO4.pbe0-d3bj-cosmo.optg-freq.chk
 %chk=HClO4.pbe0-d3bj-gp.sp.chk
 Copying data from "HClO4.pbe0-d3bj-cosmo.optg-freq.chk" to current chk file "HClO4.pbe0-d3bj-gp.sp.chk"
 IOpt=  2 FromEx=T IUOpen= 4 IOptOp= 5 NList=   0 IFRang= 0 IUIn= 4 IUOut= 2.
 ----------------------------------------------------------------------
 #p PBE1PBE/GEN GFInput GFOldPrint 5D 7F IOP(4/69=2, 6/7=3) EmpiricalDi
 spersion=GD3BJ Scf=(NoVarAcc,MaxCycle=200,conver=8) Integral=(Grid=Ult
 raFine) Guess=CheckPoint Geom=CheckPoint Symm=Loose
 ----------------------------------------------------------------------
 1/29=2,38=1,172=1/1;
 2/12=2,17=4,18=3,40=1/2;
 3/5=7,8=11,11=2,14=-4,24=11,25=1,30=1,74=-13,75=-5,116=-2,124=41/1,2,3;
 4/5=1,69=2/1;
 5/5=2,6=8,7=200,38=6/2;
 6/7=3,8=2,9=2,10=2,28=1/1;
 99/5=1,9=1/99;
 Leave Link    1 at Sat Nov 15 17:31:24 2025, MaxMem=  2097152000 cpu:               0.9 elap:               0.1
 (Enter /home/pcmt/gaussian/g16.C.01/g16/l101.exe)
 -----------------------------------
 HClO4.pbe0-d3bj-cosmo.optg-freq.chk
 -----------------------------------
 Structure from the checkpoint file:  "HClO4.pbe0-d3bj-gp.sp.chk"
 Charge =  0 Multiplicity = 1
 Redundant internal coordinates found in file.  (old form).
 O,0,1.4397959245,-0.1834555547,-0.5278732272
 Cl,0,0.1632818646,0.3065894956,-0.1992332568
 O,0,-0.8626099211,-0.1248610316,-1.06658112
 O,0,-0.17096858,0.1788604151,1.1658904357
 O,0,0.3529398984,1.8691752393,-0.4712004504
 H,0,-0.4948451863,2.3128444363,-0.2701723813
 Recover connectivity data from disk.
 ITRead=  0  0  0  0  0  0
 MicOpt= -1 -1 -1 -1 -1 -1
                           ----------------------------
                           !    Current Parameters    !
                           ! (Angstroms and Degrees)  !
 --------------------------                            --------------------------
 ! Name  Definition              Value                                          !
 --------------------------------------------------------------------------------
 ! R1    R(1,2)                  1.4063                                         !
 ! R2    R(2,3)                  1.411                                          !
 ! R3    R(2,4)                  1.4112                                         !
 ! R4    R(2,5)                  1.5974                                         !
 ! R5    R(5,6)                  0.9777                                         !
 ! A1    A(1,2,3)              114.1904                                         !
 ! A2    A(1,2,4)              114.1741                                         !
 ! A3    A(1,2,5)              101.1463                                         !
 ! A4    A(3,2,4)              113.2497                                         !
 ! A5    A(3,2,5)              106.3071                                         !
 ! A6    A(4,2,5)              106.341                                          !
 ! A7    A(2,5,6)              107.814                                          !
 ! D1    D(1,2,5,6)            179.9355                                         !
 ! D2    D(3,2,5,6)             60.4109                                         !
 ! D3    D(4,2,5,6)            -60.5448                                         !
 --------------------------------------------------------------------------------
 NAtoms=      6 NQM=        6 NQMF=       0 NMMI=      0 NMMIF=      0
                NMic=       0 NMicF=      0.
                    Isotopes and Nuclear Properties:
 (Nuclear quadrupole moments (NQMom) in fm**2, nuclear magnetic moments (NMagM)
  in nuclear magnetons)

  Atom         1           2           3           4           5           6
 IAtWgt=          16          35          16          16          16           1
 AtmWgt=  15.9949146  34.9688527  15.9949146  15.9949146  15.9949146   1.0078250
 NucSpn=           0           3           0           0           0           1
 AtZEff=   5.6000000  14.2400000   5.6000000   5.6000000   5.6000000   1.0000000
 NQMom=    0.0000000  -8.1650000   0.0000000   0.0000000   0.0000000   0.0000000
 NMagM=    0.0000000   0.8218740   0.0000000   0.0000000   0.0000000   2.7928460
 AtZNuc=   8.0000000  17.0000000   8.0000000   8.0000000   8.0000000   1.0000000
 Leave Link  101 at Sat Nov 15 17:31:24 2025, MaxMem=  2097152000 cpu:               1.7 elap:               0.4
 (Enter /home/pcmt/gaussian/g16.C.01/g16/l202.exe)
                          Input orientation:                          
 ---------------------------------------------------------------------
 Center     Atomic      Atomic             Coordinates (Angstroms)
 Number     Number       Type             X           Y           Z
 ---------------------------------------------------------------------
      1          8           0        1.439796   -0.183456   -0.527873
      2         17           0        0.163282    0.306589   -0.199233
      3          8           0       -0.862610   -0.124861   -1.066581
      4          8           0       -0.170969    0.178860    1.165890
      5          8           0        0.352940    1.869175   -0.471200
      6          1           0       -0.494845    2.312844   -0.270172
 ---------------------------------------------------------------------
                    Distance matrix (angstroms):
                    1          2          3          4          5
     1  O    0.000000
     2  Cl   1.406285   0.000000
     3  O    2.365314   1.410991   0.000000
     4  O    2.365306   1.411241   2.356808   0.000000
     5  O    2.323308   1.597376   2.410025   2.410749   0.000000
     6  H    3.168716   2.112634   2.590738   2.592501   0.977750
                    6
     6  H    0.000000
 Stoichiometry    ClHO4
 Framework group  C1[X(ClHO4)]
 Deg. of freedom    12
 Full point group                 C1      NOp   1
 RotChk:  IX=2 Diff= 1.46D-14
 Largest Abelian subgroup         C1      NOp   1
 Largest concise Abelian subgroup C1      NOp   1
                         Standard orientation:                         
 ---------------------------------------------------------------------
 Center     Atomic      Atomic             Coordinates (Angstroms)
 Number     Number       Type             X           Y           Z
 ---------------------------------------------------------------------
      1          8           0        0.588724    1.320869   -0.001573
      2         17           0        0.123464   -0.006221   -0.000295
      3          8           0        0.417814   -0.723239   -1.179336
      4          8           0        0.424546   -0.723047    1.177462
      5          8           0       -1.457681    0.220887    0.003611
      6          1           0       -1.886111   -0.658000    0.003709
 ---------------------------------------------------------------------
 Rotational constants (GHZ):           5.6235913           5.3701188           5.3123491
 Leave Link  202 at Sat Nov 15 17:31:24 2025, MaxMem=  2097152000 cpu:               0.2 elap:               0.1
 (Enter /home/pcmt/gaussian/g16.C.01/g16/l301.exe)
 General basis read from cards:  (5D, 7F)
 Centers:       2
 Def2TZVP
 ****
 Centers:       1      3      4      5
 Def2TZVP
 ****
 Centers:       6
 Def2TZVP
 ****
 Ernie: Thresh=  0.10000D-02 Tol=  0.10000D-05 Strict=F.
 AO basis set in the form of general basis input (Overlap normalization):
      1 0
 S   6 1.00       0.000000000000
      0.2703238263D+05  0.5722733521D-03
      0.4052387139D+04  0.4435323349D-02
      0.9223272271D+03  0.2302010771D-01
      0.2612407099D+03  0.9282249067D-01
      0.8535464135D+02  0.2937850001D+00
      0.3103503524D+02  0.6740160450D+00
 S   2 1.00       0.000000000000
      0.1226086073D+02  0.6383993703D+00
      0.4998707601D+01  0.3953458713D+00
 S   1 1.00       0.000000000000
      0.1170310816D+01  0.1000000000D+01
 S   1 1.00       0.000000000000
      0.4647474099D+00  0.1000000000D+01
 S   1 1.00       0.000000000000
      0.1850453636D+00  0.1000000000D+01
 P   4 1.00       0.000000000000
      0.6327495480D+02  0.1201833222D-01
      0.1462704938D+02  0.8300542179D-01
      0.4450122346D+01  0.3199174393D+00
      0.1527579965D+01  0.7071554292D+00
 P   1 1.00       0.000000000000
      0.5293511794D+00  0.1000000000D+01
 P   1 1.00       0.000000000000
      0.1747842127D+00  0.1000000000D+01
 D   1 1.00       0.000000000000
      0.2314000000D+01  0.1000000000D+01
 D   1 1.00       0.000000000000
      0.6450000000D+00  0.1000000000D+01
 F   1 1.00       0.000000000000
      0.1428000000D+01  0.1000000000D+01
 ****
      2 0
 S   7 1.00       0.000000000000
      0.6950799094D+05  0.5145738965D-03
      0.1042615688D+05  0.3978134481D-02
      0.2373233406D+04  0.2045617867D-01
      0.6715642007D+03  0.8014810289D-01
      0.2184199979D+03  0.2345477032D+00
      0.7757224971D+02  0.4454336858D+00
      0.2888881528D+02  0.3546684250D+00
 S   3 1.00       0.000000000000
      0.1271052718D+03  0.1129368805D+00
      0.3933958296D+02  0.4837351421D+00
      0.7674067999D+01 -0.1229229739D+01
 S   2 1.00       0.000000000000
      0.3874562763D+01  0.6729682164D+00
      0.1838583257D+01  0.3495605141D+00
 S   1 1.00       0.000000000000
      0.5022905754D+00  0.1000000000D+01
 S   1 1.00       0.000000000000
      0.1796272342D+00  0.1000000000D+01
 P   5 1.00       0.000000000000
      0.6665042328D+03  0.3350250820D-02
      0.1576424169D+03  0.2676397041D-01
      0.5026252098D+02  0.1236268236D+00
      0.1853607811D+02  0.3584578792D+00
      0.7294053278D+01  0.6167729635D+00
 P   1 1.00       0.000000000000
      0.2943324899D+01  0.1000000000D+01
 P   1 1.00       0.000000000000
      0.1040497082D+01  0.1000000000D+01
 P   1 1.00       0.000000000000
      0.3845641508D+00  0.1000000000D+01
 P   1 1.00       0.000000000000
      0.1306964273D+00  0.1000000000D+01
 D   2 1.00       0.000000000000
      0.4610000000D+01  0.1826583505D+00
      0.1011000000D+01  0.9132917523D+00
 D   1 1.00       0.000000000000
      0.3390000000D+00  0.1000000000D+01
 F   1 1.00       0.000000000000
      0.7060000000D+00  0.1000000000D+01
 ****
      3 0
 S   6 1.00       0.000000000000
      0.2703238263D+05  0.5722733521D-03
      0.4052387139D+04  0.4435323349D-02
      0.9223272271D+03  0.2302010771D-01
      0.2612407099D+03  0.9282249067D-01
      0.8535464135D+02  0.2937850001D+00
      0.3103503524D+02  0.6740160450D+00
 S   2 1.00       0.000000000000
      0.1226086073D+02  0.6383993703D+00
      0.4998707601D+01  0.3953458713D+00
 S   1 1.00       0.000000000000
      0.1170310816D+01  0.1000000000D+01
 S   1 1.00       0.000000000000
      0.4647474099D+00  0.1000000000D+01
 S   1 1.00       0.000000000000
      0.1850453636D+00  0.1000000000D+01
 P   4 1.00       0.000000000000
      0.6327495480D+02  0.1201833222D-01
      0.1462704938D+02  0.8300542179D-01
      0.4450122346D+01  0.3199174393D+00
      0.1527579965D+01  0.7071554292D+00
 P   1 1.00       0.000000000000
      0.5293511794D+00  0.1000000000D+01
 P   1 1.00       0.000000000000
      0.1747842127D+00  0.1000000000D+01
 D   1 1.00       0.000000000000
      0.2314000000D+01  0.1000000000D+01
 D   1 1.00       0.000000000000
      0.6450000000D+00  0.1000000000D+01
 F   1 1.00       0.000000000000
      0.1428000000D+01  0.1000000000D+01
 ****
      4 0
 S   6 1.00       0.000000000000
      0.2703238263D+05  0.5722733521D-03
      0.4052387139D+04  0.4435323349D-02
      0.9223272271D+03  0.2302010771D-01
      0.2612407099D+03  0.9282249067D-01
      0.8535464135D+02  0.2937850001D+00
      0.3103503524D+02  0.6740160450D+00
 S   2 1.00       0.000000000000
      0.1226086073D+02  0.6383993703D+00
      0.4998707601D+01  0.3953458713D+00
 S   1 1.00       0.000000000000
      0.1170310816D+01  0.1000000000D+01
 S   1 1.00       0.000000000000
      0.4647474099D+00  0.1000000000D+01
 S   1 1.00       0.000000000000
      0.1850453636D+00  0.1000000000D+01
 P   4 1.00       0.000000000000
      0.6327495480D+02  0.1201833222D-01
      0.1462704938D+02  0.8300542179D-01
      0.4450122346D+01  0.3199174393D+00
      0.1527579965D+01  0.7071554292D+00
 P   1 1.00       0.000000000000
      0.5293511794D+00  0.1000000000D+01
 P   1 1.00       0.000000000000
      0.1747842127D+00  0.1000000000D+01
 D   1 1.00       0.000000000000
      0.2314000000D+01  0.1000000000D+01
 D   1 1.00       0.000000000000
      0.6450000000D+00  0.1000000000D+01
 F   1 1.00       0.000000000000
      0.1428000000D+01  0.1000000000D+01
 ****
      5 0
 S   6 1.00       0.000000000000
      0.2703238263D+05  0.5722733521D-03
      0.4052387139D+04  0.4435323349D-02
      0.9223272271D+03  0.2302010771D-01
      0.2612407099D+03  0.9282249067D-01
      0.8535464135D+02  0.2937850001D+00
      0.3103503524D+02  0.6740160450D+00
 S   2 1.00       0.000000000000
      0.1226086073D+02  0.6383993703D+00
      0.4998707601D+01  0.3953458713D+00
 S   1 1.00       0.000000000000
      0.1170310816D+01  0.1000000000D+01
 S   1 1.00       0.000000000000
      0.4647474099D+00  0.1000000000D+01
 S   1 1.00       0.000000000000
      0.1850453636D+00  0.1000000000D+01
 P   4 1.00       0.000000000000
      0.6327495480D+02  0.1201833222D-01
      0.1462704938D+02  0.8300542179D-01
      0.4450122346D+01  0.3199174393D+00
      0.1527579965D+01  0.7071554292D+00
 P   1 1.00       0.000000000000
      0.5293511794D+00  0.1000000000D+01
 P   1 1.00       0.000000000000
      0.1747842127D+00  0.1000000000D+01
 D   1 1.00       0.000000000000
      0.2314000000D+01  0.1000000000D+01
 D   1 1.00       0.000000000000
      0.6450000000D+00  0.1000000000D+01
 F   1 1.00       0.000000000000
      0.1428000000D+01  0.1000000000D+01
 ****
      6 0
 S   3 1.00       0.000000000000
      0.3406134100D+02  0.2543930721D-01
      0.5123574600D+01  0.1900859489D+00
      0.1164662600D+01  0.8524411301D+00
 S   1 1.00       0.000000000000
      0.3272304100D+00  0.1000000000D+01
 S   1 1.00       0.000000000000
      0.1030724100D+00  0.1000000000D+01
 P   1 1.00       0.000000000000
      0.8000000000D+00  0.1000000000D+01
 ****

 ***********************************************************************************************************************************
 *             ATOMIC CENTER             *        ATOMIC ORBITAL       *                     GAUSSIAN FUNCTIONS                    *
 ***********************************************************************************************************************************
 *                                       * FUNCTION    SHELL    SCALE  *                                                           *
 *    ATOM   X-COORD  Y-COORD  Z-COORD   *  NUMBER     TYPE     FACTOR *  EXPONENT    S-COEF      P-COEF      D-COEF      F-COEF   *
 ***********************************************************************************************************************************
 *     O      1.11253  2.49608 -0.00297                                                                                            *
+                                                1   S           1.00                                                               
+                                                                      0.270324D+050.859858D+000.000000D+000.000000D+000.000000D+00 
 *                                                                     0.405239D+040.160553D+010.000000D+000.000000D+000.000000D+00*
 *                                                                     0.922327D+030.274588D+010.000000D+000.000000D+000.000000D+00*
 *                                                                     0.261241D+030.429877D+010.000000D+000.000000D+000.000000D+00*
 *                                                                     0.853546D+020.587977D+010.000000D+000.000000D+000.000000D+00*
 *                                                                     0.310350D+020.631640D+010.000000D+000.000000D+000.000000D+00*
 *                                               2   S           1.00                                                              *
+                                                                      0.122609D+020.298121D+010.000000D+000.000000D+000.000000D+00 
 *                                                                     0.499871D+010.941956D+000.000000D+000.000000D+000.000000D+00*
 *                                               3   S           1.00                                                              *
+                                                                      0.117031D+010.801929D+000.000000D+000.000000D+000.000000D+00 
 *                                               4   S           1.00                                                              *
+                                                                      0.464747D+000.401165D+000.000000D+000.000000D+000.000000D+00 
 *                                               5   S           1.00                                                              *
+                                                                      0.185045D+000.201080D+000.000000D+000.000000D+000.000000D+00 
 *                                           6-  8   P           1.00                                                              *
+                                                                      0.632750D+020.000000D+000.305720D+010.000000D+000.000000D+00 
 *                                                                     0.146270D+020.000000D+000.338448D+010.000000D+000.000000D+00*
 *                                                                     0.445012D+010.000000D+000.294743D+010.000000D+000.000000D+00*
 *                                                                     0.152758D+010.000000D+000.171183D+010.000000D+000.000000D+00*
 *                                           9- 11   P           1.00                                                              *
+                                                                      0.529351D+000.000000D+000.643606D+000.000000D+000.000000D+00 
 *                                          12- 14   P           1.00                                                              *
+                                                                      0.174784D+000.000000D+000.161090D+000.000000D+000.000000D+00 
 *                                          15- 19   D           1.00                                                              *
+                                                                      0.231400D+010.000000D+000.000000D+000.714571D+010.000000D+00 
 *                                          20- 24   D           1.00                                                              *
+                                                                      0.645000D+000.000000D+000.000000D+000.764080D+000.000000D+00 
 *                                          19- 31   F           1.00                                                              *
+                                                                      0.142800D+010.000000D+000.000000D+000.000000D+000.328165D+01 
 *---------------------------------------------------------------------------------------------------------------------------------*
 *     Cl     0.23331 -0.01176 -0.00056                                                                                            *
+                                               32   S           1.00                                                               
+                                                                      0.695080D+050.156994D+010.000000D+000.000000D+000.000000D+00 
 *                                                                     0.104262D+050.292538D+010.000000D+000.000000D+000.000000D+00*
 *                                                                     0.237323D+040.495724D+010.000000D+000.000000D+000.000000D+00*
 *                                                                     0.671564D+030.753562D+010.000000D+000.000000D+000.000000D+00*
 *                                                                     0.218420D+030.949753D+010.000000D+000.000000D+000.000000D+00*
 *                                                                     0.775722D+020.829799D+010.000000D+000.000000D+000.000000D+00*
 *                                                                     0.288888D+020.314978D+010.000000D+000.000000D+000.000000D+00*
 *                                              33   S           1.00                                                              *
+                                                                      0.127105D+030.304697D+010.000000D+000.000000D+000.000000D+00 
 *                                                                     0.393396D+020.541552D+010.000000D+000.000000D+000.000000D+00*
 *                                                                     0.767407D+01-.403936D+010.000000D+000.000000D+000.000000D+00*
 *                                              34   S           1.00                                                              *
+                                                                      0.387456D+010.132456D+010.000000D+000.000000D+000.000000D+00 
 *                                                                     0.183858D+010.393364D+000.000000D+000.000000D+000.000000D+00*
 *                                              35   S           1.00                                                              *
+                                                                      0.502291D+000.425232D+000.000000D+000.000000D+000.000000D+00 
 *                                              36   S           1.00                                                              *
+                                                                      0.179627D+000.196648D+000.000000D+000.000000D+000.000000D+00 
 *                                          37- 39   P           1.00                                                              *
+                                                                      0.666504D+030.000000D+000.161723D+020.000000D+000.000000D+00 
 *                                                                     0.157642D+030.000000D+000.213099D+020.000000D+000.000000D+00*
 *                                                                     0.502625D+020.000000D+000.235835D+020.000000D+000.000000D+00*
 *                                                                     0.185361D+020.000000D+000.196517D+020.000000D+000.000000D+00*
 *                                                                     0.729405D+010.000000D+000.105384D+020.000000D+000.000000D+00*
 *                                          40- 42   P           1.00                                                              *
+                                                                      0.294332D+010.000000D+000.549525D+010.000000D+000.000000D+00 
 *                                          43- 45   P           1.00                                                              *
+                                                                      0.104050D+010.000000D+000.149793D+010.000000D+000.000000D+00 
 *                                          46- 48   P           1.00                                                              *
+                                                                      0.384564D+000.000000D+000.431669D+000.000000D+000.000000D+00 
 *                                          49- 51   P           1.00                                                              *
+                                                                      0.130696D+000.000000D+000.112013D+000.000000D+000.000000D+00 
 *                                          52- 56   D           1.00                                                              *
+                                                                      0.461000D+010.000000D+000.000000D+000.436039D+010.000000D+00 
 *                                                                     0.101100D+010.000000D+000.000000D+000.153226D+010.000000D+00*
 *                                          57- 61   D           1.00                                                              *
+                                                                      0.339000D+000.000000D+000.000000D+000.247890D+000.000000D+00 
 *                                          56- 68   F           1.00                                                              *
+                                                                      0.706000D+000.000000D+000.000000D+000.000000D+000.672613D+00 
 *---------------------------------------------------------------------------------------------------------------------------------*
 *     O      0.78955 -1.36672 -2.22862                                                                                            *
+                                               69   S           1.00                                                               
+                                                                      0.270324D+050.859858D+000.000000D+000.000000D+000.000000D+00 
 *                                                                     0.405239D+040.160553D+010.000000D+000.000000D+000.000000D+00*
 *                                                                     0.922327D+030.274588D+010.000000D+000.000000D+000.000000D+00*
 *                                                                     0.261241D+030.429877D+010.000000D+000.000000D+000.000000D+00*
 *                                                                     0.853546D+020.587977D+010.000000D+000.000000D+000.000000D+00*
 *                                                                     0.310350D+020.631640D+010.000000D+000.000000D+000.000000D+00*
 *                                              70   S           1.00                                                              *
+                                                                      0.122609D+020.298121D+010.000000D+000.000000D+000.000000D+00 
 *                                                                     0.499871D+010.941956D+000.000000D+000.000000D+000.000000D+00*
 *                                              71   S           1.00                                                              *
+                                                                      0.117031D+010.801929D+000.000000D+000.000000D+000.000000D+00 
 *                                              72   S           1.00                                                              *
+                                                                      0.464747D+000.401165D+000.000000D+000.000000D+000.000000D+00 
 *                                              73   S           1.00                                                              *
+                                                                      0.185045D+000.201080D+000.000000D+000.000000D+000.000000D+00 
 *                                          74- 76   P           1.00                                                              *
+                                                                      0.632750D+020.000000D+000.305720D+010.000000D+000.000000D+00 
 *                                                                     0.146270D+020.000000D+000.338448D+010.000000D+000.000000D+00*
 *                                                                     0.445012D+010.000000D+000.294743D+010.000000D+000.000000D+00*
 *                                                                     0.152758D+010.000000D+000.171183D+010.000000D+000.000000D+00*
 *                                          77- 79   P           1.00                                                              *
+                                                                      0.529351D+000.000000D+000.643606D+000.000000D+000.000000D+00 
 *                                          80- 82   P           1.00                                                              *
+                                                                      0.174784D+000.000000D+000.161090D+000.000000D+000.000000D+00 
 *                                          83- 87   D           1.00                                                              *
+                                                                      0.231400D+010.000000D+000.000000D+000.714571D+010.000000D+00 
 *                                          88- 92   D           1.00                                                              *
+                                                                      0.645000D+000.000000D+000.000000D+000.764080D+000.000000D+00 
 *                                          87- 99   F           1.00                                                              *
+                                                                      0.142800D+010.000000D+000.000000D+000.000000D+000.328165D+01 
 *---------------------------------------------------------------------------------------------------------------------------------*
 *     O      0.80227 -1.36636  2.22508                                                                                            *
+                                              100   S           1.00                                                               
+                                                                      0.270324D+050.859858D+000.000000D+000.000000D+000.000000D+00 
 *                                                                     0.405239D+040.160553D+010.000000D+000.000000D+000.000000D+00*
 *                                                                     0.922327D+030.274588D+010.000000D+000.000000D+000.000000D+00*
 *                                                                     0.261241D+030.429877D+010.000000D+000.000000D+000.000000D+00*
 *                                                                     0.853546D+020.587977D+010.000000D+000.000000D+000.000000D+00*
 *                                                                     0.310350D+020.631640D+010.000000D+000.000000D+000.000000D+00*
 *                                             101   S           1.00                                                              *
+                                                                      0.122609D+020.298121D+010.000000D+000.000000D+000.000000D+00 
 *                                                                     0.499871D+010.941956D+000.000000D+000.000000D+000.000000D+00*
 *                                             102   S           1.00                                                              *
+                                                                      0.117031D+010.801929D+000.000000D+000.000000D+000.000000D+00 
 *                                             103   S           1.00                                                              *
+                                                                      0.464747D+000.401165D+000.000000D+000.000000D+000.000000D+00 
 *                                             104   S           1.00                                                              *
+                                                                      0.185045D+000.201080D+000.000000D+000.000000D+000.000000D+00 
 *                                         105-107   P           1.00                                                              *
+                                                                      0.632750D+020.000000D+000.305720D+010.000000D+000.000000D+00 
 *                                                                     0.146270D+020.000000D+000.338448D+010.000000D+000.000000D+00*
 *                                                                     0.445012D+010.000000D+000.294743D+010.000000D+000.000000D+00*
 *                                                                     0.152758D+010.000000D+000.171183D+010.000000D+000.000000D+00*
 *                                         108-110   P           1.00                                                              *
+                                                                      0.529351D+000.000000D+000.643606D+000.000000D+000.000000D+00 
 *                                         111-113   P           1.00                                                              *
+                                                                      0.174784D+000.000000D+000.161090D+000.000000D+000.000000D+00 
 *                                         114-118   D           1.00                                                              *
+                                                                      0.231400D+010.000000D+000.000000D+000.714571D+010.000000D+00 
 *                                         119-123   D           1.00                                                              *
+                                                                      0.645000D+000.000000D+000.000000D+000.764080D+000.000000D+00 
 *                                         118-130   F           1.00                                                              *
+                                                                      0.142800D+010.000000D+000.000000D+000.000000D+000.328165D+01 
 *---------------------------------------------------------------------------------------------------------------------------------*
 *     O     -2.75462  0.41742  0.00682                                                                                            *
+                                              131   S           1.00                                                               
+                                                                      0.270324D+050.859858D+000.000000D+000.000000D+000.000000D+00 
 *                                                                     0.405239D+040.160553D+010.000000D+000.000000D+000.000000D+00*
 *                                                                     0.922327D+030.274588D+010.000000D+000.000000D+000.000000D+00*
 *                                                                     0.261241D+030.429877D+010.000000D+000.000000D+000.000000D+00*
 *                                                                     0.853546D+020.587977D+010.000000D+000.000000D+000.000000D+00*
 *                                                                     0.310350D+020.631640D+010.000000D+000.000000D+000.000000D+00*
 *                                             132   S           1.00                                                              *
+                                                                      0.122609D+020.298121D+010.000000D+000.000000D+000.000000D+00 
 *                                                                     0.499871D+010.941956D+000.000000D+000.000000D+000.000000D+00*
 *                                             133   S           1.00                                                              *
+                                                                      0.117031D+010.801929D+000.000000D+000.000000D+000.000000D+00 
 *                                             134   S           1.00                                                              *
+                                                                      0.464747D+000.401165D+000.000000D+000.000000D+000.000000D+00 
 *                                             135   S           1.00                                                              *
+                                                                      0.185045D+000.201080D+000.000000D+000.000000D+000.000000D+00 
 *                                         136-138   P           1.00                                                              *
+                                                                      0.632750D+020.000000D+000.305720D+010.000000D+000.000000D+00 
 *                                                                     0.146270D+020.000000D+000.338448D+010.000000D+000.000000D+00*
 *                                                                     0.445012D+010.000000D+000.294743D+010.000000D+000.000000D+00*
 *                                                                     0.152758D+010.000000D+000.171183D+010.000000D+000.000000D+00*
 *                                         139-141   P           1.00                                                              *
+                                                                      0.529351D+000.000000D+000.643606D+000.000000D+000.000000D+00 
 *                                         142-144   P           1.00                                                              *
+                                                                      0.174784D+000.000000D+000.161090D+000.000000D+000.000000D+00 
 *                                         145-149   D           1.00                                                              *
+                                                                      0.231400D+010.000000D+000.000000D+000.714571D+010.000000D+00 
 *                                         150-154   D           1.00                                                              *
+                                                                      0.645000D+000.000000D+000.000000D+000.764080D+000.000000D+00 
 *                                         149-161   F           1.00                                                              *
+                                                                      0.142800D+010.000000D+000.000000D+000.000000D+000.328165D+01 
 *---------------------------------------------------------------------------------------------------------------------------------*
 *     H     -3.56423 -1.24344  0.00701                                                                                            *
+                                              162   S           1.00                                                               
+                                                                      0.340613D+020.255630D+000.000000D+000.000000D+000.000000D+00 
 *                                                                     0.512357D+010.461360D+000.000000D+000.000000D+000.000000D+00*
 *                                                                     0.116466D+010.681121D+000.000000D+000.000000D+000.000000D+00*
 *                                             163   S           1.00                                                              *
+                                                                      0.327230D+000.308355D+000.000000D+000.000000D+000.000000D+00 
 *                                             164   S           1.00                                                              *
+                                                                      0.103072D+000.129648D+000.000000D+000.000000D+000.000000D+00 
 *                                         165-167   P           1.00                                                              *
+                                                                      0.800000D+000.000000D+000.107846D+010.000000D+000.000000D+00 
 ***********************************************************************************************************************************
 There are   192 symmetry adapted cartesian basis functions of A   symmetry.
 There are   167 symmetry adapted basis functions of A   symmetry.
   167 basis functions,   281 primitive gaussians,   192 cartesian basis functions
    25 alpha electrons       25 beta electrons
       nuclear repulsion energy       297.1077293130 Hartrees.
 IExCor= 1009 DFT=T Ex+Corr=PBE1PBE ExCW=0 ScaHFX=  0.250000
 ScaDFX=  0.750000  0.750000  1.000000  1.000000 ScalE2=  1.000000  1.000000
 IRadAn=      5 IRanWt=     -1 IRanGd=            0 ICorTp=0 IEmpDi=141
 NAtoms=    6 NActive=    6 NUniq=    6 SFac= 1.00D+00 NAtFMM=   60 NAOKFM=F Big=F
 Integral buffers will be    131072 words long.
 Raffenetti 2 integral format.
 Two-electron integral symmetry is turned on.
 R6Disp:  Grimme-D3(BJ) Dispersion energy=       -0.0035080523 Hartrees.
 Nuclear repulsion after empirical dispersion term =      297.1042212608 Hartrees.
 Leave Link  301 at Sat Nov 15 17:31:25 2025, MaxMem=  2097152000 cpu:               0.5 elap:               0.1
 (Enter /home/pcmt/gaussian/g16.C.01/g16/l302.exe)
 NPDir=0 NMtPBC=     1 NCelOv=     1 NCel=       1 NClECP=     1 NCelD=      1
         NCelK=      1 NCelE2=     1 NClLst=     1 CellRange=     0.0.
 One-electron integrals computed using PRISM.
 One-electron integral symmetry used in STVInt
 NBasis=   167 RedAO= T EigKep=  1.60D-03  NBF=   167
 NBsUse=   167 1.00D-06 EigRej= -1.00D+00 NBFU=   167
 Precomputing XC quadrature grid using
 IXCGrd= 4 IRadAn=           5 IRanWt=          -1 IRanGd=           0 AccXCQ= 0.00D+00.
 Generated NRdTot=       0 NPtTot=           0 NUsed=           0 NTot=          32
 NSgBfM=   191   191   191   191   191 MxSgAt=     6 MxSgA2=     6.
 Leave Link  302 at Sat Nov 15 17:31:25 2025, MaxMem=  2097152000 cpu:               2.6 elap:               0.5
 (Enter /home/pcmt/gaussian/g16.C.01/g16/l303.exe)
 DipDrv:  MaxL=1.
 Leave Link  303 at Sat Nov 15 17:31:25 2025, MaxMem=  2097152000 cpu:               0.5 elap:               0.1
 (Enter /home/pcmt/gaussian/g16.C.01/g16/l401.exe)
 Initial guess from the checkpoint file:  "HClO4.pbe0-d3bj-gp.sp.chk"
 B after Tr=    -0.000000    0.000000    0.000000
         Rot=    1.000000   -0.000000    0.000000    0.000000 Ang=   0.00 deg.
 Guess basis will be translated and rotated to current coordinates.
 JPrj=2 DoOrth=T DoCkMO=T.
 Leave Link  401 at Sat Nov 15 17:31:26 2025, MaxMem=  2097152000 cpu:               1.3 elap:               0.2
 (Enter /home/pcmt/gaussian/g16.C.01/g16/l502.exe)
 Keep R1 ints in memory in canonical form, NReq=106575332.
 FoFCou: FMM=F IPFlag=           0 FMFlag=           0 FMFlg1=           0
         NFxFlg=           0 DoJE=F BraDBF=F KetDBF=F FulRan=T
         wScrn=  0.000000 ICntrl=       600 IOpCl=  0 I1Cent=           0 NGrid=           0
         NMat0=    1 NMatS0=  14028 NMatT0=    0 NMatD0=    1 NMtDS0=    0 NMtDT0=    0
 Symmetry not used in FoFCou.
 Two-electron integral symmetry not used.
 Closed shell SCF:
 Using DIIS extrapolation, IDIIS=  1040.
 NGot=  2097152000 LenX=  1998675460 LenY=  1998638155
 Requested convergence on RMS density matrix=1.00D-08 within 200 cycles.
 Requested convergence on MAX density matrix=1.00D-06.
 Requested convergence on             energy=1.00D-06.
 No special actions if energy rises.

 Cycle   1  Pass 1  IDiag  1:
 E= -761.098341130151    
 DIIS: error= 3.17D-03 at cycle   1 NSaved=   1.
 NSaved= 1 IEnMin= 1 EnMin= -761.098341130151     IErMin= 1 ErrMin= 3.17D-03
 ErrMax= 3.17D-03  0.00D+00 EMaxC= 1.00D-01 BMatC= 1.22D-03 BMatP= 1.22D-03
 IDIUse=3 WtCom= 9.68D-01 WtEn= 3.17D-02
 Coeff-Com:  0.100D+01
 Coeff-En:   0.100D+01
 Coeff:      0.100D+01
 Gap=     0.331 Goal=   None    Shift=    0.000
 GapD=    0.331 DampG=1.000 DampE=1.000 DampFc=1.0000 IDamp=-1.
 RMSDP=6.19D-04 MaxDP=1.41D-02              OVMax= 2.50D-02

 Cycle   2  Pass 1  IDiag  1:
 E= -761.099629482230     Delta-E=       -0.001288352079 Rises=F Damp=F
 DIIS: error= 2.10D-03 at cycle   2 NSaved=   2.
 NSaved= 2 IEnMin= 2 EnMin= -761.099629482230     IErMin= 2 ErrMin= 2.10D-03
 ErrMax= 2.10D-03  0.00D+00 EMaxC= 1.00D-01 BMatC= 1.13D-03 BMatP= 1.22D-03
 IDIUse=3 WtCom= 9.79D-01 WtEn= 2.10D-02
 Coeff-Com:  0.488D+00 0.512D+00
 Coeff-En:   0.128D+00 0.872D+00
 Coeff:      0.481D+00 0.519D+00
 Gap=     0.337 Goal=   None    Shift=    0.000
 RMSDP=1.79D-04 MaxDP=5.60D-03 DE=-1.29D-03 OVMax= 1.03D-02

 Cycle   3  Pass 1  IDiag  1:
 E= -761.100360002834     Delta-E=       -0.000730520604 Rises=F Damp=F
 DIIS: error= 8.06D-04 at cycle   3 NSaved=   3.
 NSaved= 3 IEnMin= 3 EnMin= -761.100360002834     IErMin= 3 ErrMin= 8.06D-04
 ErrMax= 8.06D-04  0.00D+00 EMaxC= 1.00D-01 BMatC= 2.92D-04 BMatP= 1.13D-03
 IDIUse=3 WtCom= 9.92D-01 WtEn= 8.06D-03
 Coeff-Com:  0.175D+00 0.319D+00 0.506D+00
 Coeff-En:   0.000D+00 0.148D+00 0.852D+00
 Coeff:      0.173D+00 0.318D+00 0.509D+00
 Gap=     0.335 Goal=   None    Shift=    0.000
 RMSDP=5.98D-05 MaxDP=2.44D-03 DE=-7.31D-04 OVMax= 3.18D-03

 Cycle   4  Pass 1  IDiag  1:
 E= -761.100539522208     Delta-E=       -0.000179519374 Rises=F Damp=F
 DIIS: error= 1.43D-04 at cycle   4 NSaved=   4.
 NSaved= 4 IEnMin= 4 EnMin= -761.100539522208     IErMin= 4 ErrMin= 1.43D-04
 ErrMax= 1.43D-04  0.00D+00 EMaxC= 1.00D-01 BMatC= 8.65D-06 BMatP= 2.92D-04
 IDIUse=3 WtCom= 9.99D-01 WtEn= 1.43D-03
 Coeff-Com:  0.174D-01 0.498D-01 0.175D+00 0.758D+00
 Coeff-En:   0.000D+00 0.000D+00 0.000D+00 0.100D+01
 Coeff:      0.174D-01 0.498D-01 0.175D+00 0.758D+00
 Gap=     0.336 Goal=   None    Shift=    0.000
 RMSDP=1.36D-05 MaxDP=3.42D-04 DE=-1.80D-04 OVMax= 7.13D-04

 Cycle   5  Pass 1  IDiag  1:
 E= -761.100544558301     Delta-E=       -0.000005036094 Rises=F Damp=F
 DIIS: error= 7.73D-05 at cycle   5 NSaved=   5.
 NSaved= 5 IEnMin= 5 EnMin= -761.100544558301     IErMin= 5 ErrMin= 7.73D-05
 ErrMax= 7.73D-05  0.00D+00 EMaxC= 1.00D-01 BMatC= 1.22D-06 BMatP= 8.65D-06
 IDIUse=1 WtCom= 1.00D+00 WtEn= 0.00D+00
 Coeff-Com: -0.571D-03 0.754D-02 0.458D-01 0.342D+00 0.606D+00
 Coeff:     -0.571D-03 0.754D-02 0.458D-01 0.342D+00 0.606D+00
 Gap=     0.336 Goal=   None    Shift=    0.000
 RMSDP=5.83D-06 MaxDP=1.20D-04 DE=-5.04D-06 OVMax= 3.73D-04

 Cycle   6  Pass 1  IDiag  1:
 E= -761.100545081545     Delta-E=       -0.000000523244 Rises=F Damp=F
 DIIS: error= 4.33D-05 at cycle   6 NSaved=   6.
 NSaved= 6 IEnMin= 6 EnMin= -761.100545081545     IErMin= 6 ErrMin= 4.33D-05
 ErrMax= 4.33D-05  0.00D+00 EMaxC= 1.00D-01 BMatC= 4.82D-07 BMatP= 1.22D-06
 IDIUse=1 WtCom= 1.00D+00 WtEn= 0.00D+00
 Coeff-Com: -0.200D-02-0.103D-02 0.841D-03 0.897D-01 0.406D+00 0.507D+00
 Coeff:     -0.200D-02-0.103D-02 0.841D-03 0.897D-01 0.406D+00 0.507D+00
 Gap=     0.336 Goal=   None    Shift=    0.000
 RMSDP=2.62D-06 MaxDP=8.41D-05 DE=-5.23D-07 OVMax= 1.56D-04

 Cycle   7  Pass 1  IDiag  1:
 E= -761.100545409499     Delta-E=       -0.000000327954 Rises=F Damp=F
 DIIS: error= 8.78D-06 at cycle   7 NSaved=   7.
 NSaved= 7 IEnMin= 7 EnMin= -761.100545409499     IErMin= 7 ErrMin= 8.78D-06
 ErrMax= 8.78D-06  0.00D+00 EMaxC= 1.00D-01 BMatC= 1.42D-08 BMatP= 4.82D-07
 IDIUse=1 WtCom= 1.00D+00 WtEn= 0.00D+00
 Coeff-Com: -0.681D-03-0.680D-03-0.231D-02 0.129D-01 0.129D+00 0.224D+00
 Coeff-Com:  0.638D+00
 Coeff:     -0.681D-03-0.680D-03-0.231D-02 0.129D-01 0.129D+00 0.224D+00
 Coeff:      0.638D+00
 Gap=     0.336 Goal=   None    Shift=    0.000
 RMSDP=4.77D-07 MaxDP=1.46D-05 DE=-3.28D-07 OVMax= 2.35D-05

 Cycle   8  Pass 1  IDiag  1:
 E= -761.100545418380     Delta-E=       -0.000000008881 Rises=F Damp=F
 DIIS: error= 2.42D-06 at cycle   8 NSaved=   8.
 NSaved= 8 IEnMin= 8 EnMin= -761.100545418380     IErMin= 8 ErrMin= 2.42D-06
 ErrMax= 2.42D-06  0.00D+00 EMaxC= 1.00D-01 BMatC= 1.57D-09 BMatP= 1.42D-08
 IDIUse=1 WtCom= 1.00D+00 WtEn= 0.00D+00
 Coeff-Com: -0.262D-03-0.425D-03-0.131D-02 0.113D-02 0.429D-01 0.858D-01
 Coeff-Com:  0.330D+00 0.542D+00
 Coeff:     -0.262D-03-0.425D-03-0.131D-02 0.113D-02 0.429D-01 0.858D-01
 Coeff:      0.330D+00 0.542D+00
 Gap=     0.336 Goal=   None    Shift=    0.000
 RMSDP=1.47D-07 MaxDP=6.52D-06 DE=-8.88D-09 OVMax= 1.05D-05

 Cycle   9  Pass 1  IDiag  1:
 E= -761.100545419298     Delta-E=       -0.000000000918 Rises=F Damp=F
 DIIS: error= 7.46D-07 at cycle   9 NSaved=   9.
 NSaved= 9 IEnMin= 9 EnMin= -761.100545419298     IErMin= 9 ErrMin= 7.46D-07
 ErrMax= 7.46D-07  0.00D+00 EMaxC= 1.00D-01 BMatC= 1.50D-10 BMatP= 1.57D-09
 IDIUse=1 WtCom= 1.00D+00 WtEn= 0.00D+00
 Coeff-Com: -0.389D-04-0.130D-03-0.157D-03-0.841D-03 0.272D-02 0.906D-02
 Coeff-Com:  0.662D-01 0.270D+00 0.653D+00
 Coeff:     -0.389D-04-0.130D-03-0.157D-03-0.841D-03 0.272D-02 0.906D-02
 Coeff:      0.662D-01 0.270D+00 0.653D+00
 Gap=     0.336 Goal=   None    Shift=    0.000
 RMSDP=5.52D-08 MaxDP=2.46D-06 DE=-9.18D-10 OVMax= 2.23D-06

 Cycle  10  Pass 1  IDiag  1:
 E= -761.100545419403     Delta-E=       -0.000000000106 Rises=F Damp=F
 DIIS: error= 1.39D-07 at cycle  10 NSaved=  10.
 NSaved=10 IEnMin=10 EnMin= -761.100545419403     IErMin=10 ErrMin= 1.39D-07
 ErrMax= 1.39D-07  0.00D+00 EMaxC= 1.00D-01 BMatC= 4.48D-12 BMatP= 1.50D-10
 IDIUse=1 WtCom= 1.00D+00 WtEn= 0.00D+00
 Coeff-Com:  0.927D-05-0.225D-04 0.434D-04-0.416D-03-0.257D-02-0.375D-02
 Coeff-Com: -0.346D-02 0.516D-01 0.226D+00 0.732D+00
 Coeff:      0.927D-05-0.225D-04 0.434D-04-0.416D-03-0.257D-02-0.375D-02
 Coeff:     -0.346D-02 0.516D-01 0.226D+00 0.732D+00
 Gap=     0.336 Goal=   None    Shift=    0.000
 RMSDP=9.31D-09 MaxDP=3.80D-07 DE=-1.06D-10 OVMax= 4.77D-07

 SCF Done:  E(RPBE1PBE) =  -761.100545419     A.U. after   10 cycles
            NFock= 10  Conv=0.93D-08     -V/T= 2.0023
 KE= 7.593772754667D+02 PE=-2.396406509201D+03 EE= 5.788244670540D+02
 Leave Link  502 at Sat Nov 15 17:31:36 2025, MaxMem=  2097152000 cpu:              80.0 elap:              10.3
 (Enter /home/pcmt/gaussian/g16.C.01/g16/l601.exe)
 Copying SCF densities to generalized density rwf, IOpCl= 0 IROHF=0.

 **********************************************************************

            Population analysis using the SCF Density.

 **********************************************************************

 Orbital symmetries:
       Occupied  (A) (A) (A) (A) (A) (A) (A) (A) (A) (A) (A) (A)
                 (A) (A) (A) (A) (A) (A) (A) (A) (A) (A) (A) (A)
                 (A)
       Virtual   (A) (A) (A) (A) (A) (A) (A) (A) (A) (A) (A) (A)
                 (A) (A) (A) (A) (A) (A) (A) (A) (A) (A) (A) (A)
                 (A) (A) (A) (A) (A) (A) (A) (A) (A) (A) (A) (A)
                 (A) (A) (A) (A) (A) (A) (A) (A) (A) (A) (A) (A)
                 (A) (A) (A) (A) (A) (A) (A) (A) (A) (A) (A) (A)
                 (A) (A) (A) (A) (A) (A) (A) (A) (A) (A) (A) (A)
                 (A) (A) (A) (A) (A) (A) (A) (A) (A) (A) (A) (A)
                 (A) (A) (A) (A) (A) (A) (A) (A) (A) (A) (A) (A)
                 (A) (A) (A) (A) (A) (A) (A) (A) (A) (A) (A) (A)
                 (A) (A) (A) (A) (A) (A) (A) (A) (A) (A) (A) (A)
                 (A) (A) (A) (A) (A) (A) (A) (A) (A) (A) (A) (A)
                 (A) (A) (A) (A) (A) (A) (A) (A) (A) (A)
 The electronic state is 1-A.
 Alpha  occ. eigenvalues -- -102.09130 -19.32307 -19.27741 -19.27738 -19.27593
 Alpha  occ. eigenvalues --   -9.86108  -7.59686  -7.59433  -7.59431  -1.38046
 Alpha  occ. eigenvalues --   -1.15117  -1.15021  -1.14852  -0.76928  -0.66174
 Alpha  occ. eigenvalues --   -0.60808  -0.60361  -0.53873  -0.47145  -0.45481
 Alpha  occ. eigenvalues --   -0.45077  -0.44176  -0.39516  -0.37602  -0.35307
 Alpha virt. eigenvalues --   -0.01748   0.01142   0.05321   0.08022   0.08997
 Alpha virt. eigenvalues --    0.27843   0.29743   0.30378   0.32474   0.34650
 Alpha virt. eigenvalues --    0.39332   0.39508   0.39618   0.39894   0.41277
 Alpha virt. eigenvalues --    0.43250   0.44259   0.51413   0.53288   0.54950
 Alpha virt. eigenvalues --    0.55334   0.55809   0.56575   0.57012   0.62272
 Alpha virt. eigenvalues --    0.68617   0.78388   0.80791   0.89448   0.90545
 Alpha virt. eigenvalues --    1.06909   1.19129   1.26351   1.33833   1.34932
 Alpha virt. eigenvalues --    1.36489   1.37619   1.39207   1.45079   1.53702
 Alpha virt. eigenvalues --    1.56586   1.57820   1.63299   1.65252   1.72010
 Alpha virt. eigenvalues --    1.73635   1.75034   1.84617   1.86488   1.88042
 Alpha virt. eigenvalues --    1.93985   1.99616   2.05959   2.08366   2.13277
 Alpha virt. eigenvalues --    2.14211   2.15715   2.20197   2.21216   2.32189
 Alpha virt. eigenvalues --    2.33318   2.40919   2.46015   2.46157   2.50201
 Alpha virt. eigenvalues --    2.54870   2.63046   2.65477   2.67827   2.72764
 Alpha virt. eigenvalues --    2.81604   2.81853   2.86784   2.87074   2.95225
 Alpha virt. eigenvalues --    2.95423   3.05799   3.09486   3.12366   3.12617
 Alpha virt. eigenvalues --    3.20423   3.62256   3.73872   4.11314   4.15413
 Alpha virt. eigenvalues --    4.21600   5.01245   5.01413   5.04593   5.05949
 Alpha virt. eigenvalues --    5.07878   5.08006   5.08258   5.08392   5.08686
 Alpha virt. eigenvalues --    5.09566   5.13365   5.17457   5.22046   5.23322
 Alpha virt. eigenvalues --    5.27149   5.32083   5.32950   5.36111   5.37138
 Alpha virt. eigenvalues --    5.48221   5.59633   5.64558   5.67831   5.75523
 Alpha virt. eigenvalues --    5.75725   5.78218   5.97435   6.09964   6.22399
 Alpha virt. eigenvalues --    6.23047   6.25443   6.28764   6.33378   6.40065
 Alpha virt. eigenvalues --    6.43603   6.46778   6.50529   6.58690   6.66250
 Alpha virt. eigenvalues --    6.69147   6.71750   6.74825   6.81514   6.89346
 Alpha virt. eigenvalues --    6.91292   6.94828   6.95424   7.09612  10.94398
 Alpha virt. eigenvalues --   11.19644  11.23265  29.64325  43.30445  43.46252
 Alpha virt. eigenvalues --   43.55147  43.62534
     Molecular Orbital Coefficients:
                           1         2         3         4         5
                           O         O         O         O         O
     Eigenvalues --  -102.09130 -19.32307 -19.27741 -19.27738 -19.27593
   1 1   O  1S          0.00002  -0.00004  -0.00208  -0.00412   0.43533
   2        2S         -0.00008  -0.00005  -0.00301  -0.00598   0.63976
   3        3S          0.00080  -0.00007  -0.00055  -0.00108   0.03356
   4        4S         -0.00184   0.00050   0.00151   0.00294  -0.02280
   5        5S         -0.00057  -0.00013  -0.00164  -0.00319   0.00813
   6        6PX        -0.00008  -0.00005   0.00004   0.00008  -0.00084
   7        6PY        -0.00022   0.00003   0.00004   0.00007  -0.00223
   8        6PZ         0.00000   0.00000  -0.00004   0.00002   0.00000
   9        7PX         0.00056   0.00006  -0.00024  -0.00047   0.00197
  10        7PY         0.00148  -0.00031  -0.00047  -0.00092   0.00508
  11        7PZ        -0.00000  -0.00000   0.00000  -0.00000  -0.00001
  12        8PX        -0.00003   0.00008   0.00032   0.00062  -0.00067
  13        8PY         0.00024   0.00005   0.00055   0.00107  -0.00158
  14        8PZ         0.00000   0.00000  -0.00055   0.00028   0.00000
  15        9D 0       -0.00002  -0.00005   0.00003   0.00006  -0.00019
  16        9D+1        0.00000  -0.00000  -0.00007   0.00003  -0.00000
  17        9D-1       -0.00000  -0.00000   0.00005  -0.00003  -0.00000
  18        9D+2       -0.00005   0.00006  -0.00003  -0.00005  -0.00023
  19        9D-2        0.00004   0.00001   0.00000   0.00000   0.00020
  20       10D 0        0.00040   0.00015  -0.00017  -0.00034   0.00091
  21       10D+1        0.00000   0.00000   0.00023  -0.00012   0.00000
  22       10D-1        0.00000   0.00000  -0.00013   0.00007   0.00000
  23       10D+2        0.00060  -0.00027   0.00000   0.00000   0.00114
  24       10D-2       -0.00048   0.00001   0.00008   0.00016  -0.00099
  25       11F 0        0.00000   0.00000  -0.00003   0.00002   0.00000
  26       11F+1       -0.00007  -0.00002   0.00002   0.00004  -0.00006
  27       11F-1       -0.00016  -0.00003   0.00004   0.00007  -0.00019
  28       11F+2        0.00000  -0.00000  -0.00007   0.00004   0.00000
  29       11F-2       -0.00000  -0.00000  -0.00001   0.00000  -0.00000
  30       11F+3       -0.00018   0.00004   0.00001   0.00003  -0.00021
  31       11F-3       -0.00012   0.00004  -0.00002  -0.00003  -0.00012
  32 2   Cl 1S          1.00047   0.00004   0.00006   0.00011   0.00009
  33        2S         -0.03278  -0.00008  -0.00011  -0.00022  -0.00019
  34        3S         -0.01174  -0.00021  -0.00038  -0.00075  -0.00063
  35        4S          0.00487  -0.00053   0.00015   0.00029   0.00034
  36        5S          0.00164   0.00222   0.00294   0.00571   0.00420
  37        6PX        -0.00001   0.00004  -0.00000  -0.00000  -0.00001
  38        6PY         0.00000  -0.00001   0.00001   0.00002  -0.00003
  39        6PZ        -0.00000  -0.00000   0.00003  -0.00002   0.00000
  40        7PX         0.00001  -0.00020   0.00000   0.00000   0.00003
  41        7PY        -0.00001   0.00005  -0.00004  -0.00007   0.00011
  42        7PZ         0.00000   0.00000  -0.00009   0.00005  -0.00000
  43        8PX        -0.00019   0.00115  -0.00005  -0.00010  -0.00022
  44        8PY         0.00002  -0.00023   0.00034   0.00066  -0.00097
  45        8PZ         0.00000  -0.00000   0.00098  -0.00050   0.00000
  46        9PX         0.00120  -0.00316   0.00046   0.00092   0.00157
  47        9PY        -0.00007   0.00052  -0.00203  -0.00392   0.00575
  48        9PZ        -0.00001   0.00001  -0.00607   0.00313  -0.00000
  49       10PX         0.00082   0.00018  -0.00059  -0.00117  -0.00136
  50       10PY        -0.00016  -0.00040   0.00098   0.00190  -0.00276
  51       10PZ        -0.00000  -0.00000   0.00336  -0.00173   0.00000
  52       11D 0        0.00010  -0.00005   0.00022   0.00042  -0.00032
  53       11D+1        0.00000  -0.00000  -0.00031   0.00016  -0.00000
  54       11D-1        0.00000  -0.00000   0.00061  -0.00031  -0.00000
  55       11D+2       -0.00020   0.00013  -0.00006  -0.00012  -0.00039
  56       11D-2        0.00003   0.00000  -0.00011  -0.00021   0.00046
  57       12D 0        0.00061  -0.00125   0.00100   0.00193  -0.00206
  58       12D+1        0.00001  -0.00001  -0.00093   0.00049  -0.00000
  59       12D-1        0.00000   0.00000   0.00283  -0.00146  -0.00000
  60       12D+2       -0.00108   0.00183   0.00003   0.00007  -0.00172
  61       12D-2        0.00018  -0.00067  -0.00037  -0.00073   0.00116
  62       13F 0       -0.00000  -0.00000  -0.00027   0.00014   0.00000
  63       13F+1        0.00019   0.00045   0.00016   0.00031  -0.00024
  64       13F-1       -0.00096   0.00016  -0.00020  -0.00038  -0.00010
  65       13F+2        0.00000   0.00000   0.00043  -0.00022   0.00000
  66       13F-2       -0.00000  -0.00000   0.00041  -0.00021   0.00000
  67       13F+3       -0.00042  -0.00048   0.00004   0.00007  -0.00049
  68       13F-3       -0.00013   0.00023   0.00009   0.00017  -0.00030
  69 3   O  1S          0.00002  -0.00007   0.41471   0.13241   0.00322
  70        2S         -0.00007  -0.00007   0.60946   0.19465   0.00480
  71        3S          0.00078  -0.00029   0.03202   0.00970  -0.00037
  72        4S         -0.00175   0.00120  -0.02198  -0.00507   0.00206
  73        5S         -0.00069  -0.00120   0.00830  -0.00004  -0.00257
  74        6PX        -0.00005  -0.00003  -0.00052  -0.00014   0.00004
  75        6PY         0.00012  -0.00003   0.00113   0.00032  -0.00000
  76        6PZ         0.00019  -0.00002   0.00186   0.00059  -0.00003
  77        7PX         0.00037  -0.00008   0.00121   0.00019  -0.00027
  78        7PY        -0.00079   0.00026  -0.00268  -0.00055   0.00041
  79        7PZ        -0.00129   0.00031  -0.00436  -0.00089   0.00054
  80        8PX        -0.00004   0.00019  -0.00048   0.00017   0.00048
  81        8PY        -0.00011  -0.00032   0.00101  -0.00057  -0.00019
  82        8PZ        -0.00023  -0.00046   0.00140  -0.00016  -0.00099
  83        9D 0        0.00004  -0.00002   0.00017   0.00011  -0.00000
  84        9D+1       -0.00002  -0.00002  -0.00012  -0.00001  -0.00003
  85        9D-1        0.00005   0.00003   0.00027   0.00005   0.00001
  86        9D+2       -0.00002   0.00007  -0.00004  -0.00006  -0.00005
  87        9D-2       -0.00001  -0.00003  -0.00005  -0.00006   0.00006
  88       10D 0       -0.00047   0.00009  -0.00088  -0.00034   0.00008
  89       10D+1        0.00028  -0.00002   0.00057   0.00001   0.00001
  90       10D-1       -0.00061  -0.00005  -0.00132  -0.00018   0.00014
  91       10D+2        0.00019  -0.00025   0.00025   0.00022   0.00013
  92       10D-2        0.00016   0.00006   0.00029   0.00020  -0.00025
  93       11F 0       -0.00006   0.00002  -0.00004  -0.00008   0.00003
  94       11F+1        0.00009  -0.00003   0.00011   0.00001  -0.00001
  95       11F-1       -0.00021  -0.00002  -0.00025  -0.00003   0.00003
  96       11F+2        0.00010  -0.00002   0.00010   0.00003   0.00004
  97       11F-2        0.00010  -0.00000   0.00011   0.00001  -0.00005
  98       11F+3       -0.00003   0.00002  -0.00004  -0.00002   0.00002
  99       11F-3        0.00001  -0.00003   0.00001   0.00001   0.00005
 100 4   O  1S          0.00002  -0.00007  -0.13245   0.41470   0.00328
 101        2S         -0.00007  -0.00007  -0.19460   0.60948   0.00489
 102        3S          0.00078  -0.00029  -0.01065   0.03172  -0.00036
 103        4S         -0.00175   0.00120   0.00861  -0.02085   0.00205
 104        5S         -0.00069  -0.00120  -0.00485   0.00674  -0.00257
 105        6PX        -0.00005  -0.00003   0.00020  -0.00051   0.00004
 106        6PY         0.00012  -0.00003  -0.00040   0.00110  -0.00000
 107        6PZ        -0.00019   0.00002   0.00060  -0.00185   0.00003
 108        7PX         0.00037  -0.00008  -0.00055   0.00112  -0.00027
 109        7PY        -0.00078   0.00026   0.00110  -0.00249   0.00041
 110        7PZ         0.00128  -0.00031  -0.00179   0.00406  -0.00053
 111        8PX        -0.00004   0.00019   0.00042  -0.00030   0.00049
 112        8PY        -0.00011  -0.00032  -0.00105   0.00050  -0.00019
 113        8PZ         0.00023   0.00046   0.00094  -0.00105   0.00099
 114        9D 0        0.00004  -0.00002  -0.00001   0.00020  -0.00000
 115        9D+1        0.00002   0.00002  -0.00006   0.00010   0.00003
 116        9D-1       -0.00005  -0.00003   0.00011  -0.00025  -0.00001
 117        9D+2       -0.00002   0.00007  -0.00003  -0.00007  -0.00005
 118        9D-2       -0.00001  -0.00003  -0.00002  -0.00008   0.00006
 119       10D 0       -0.00047   0.00009   0.00023  -0.00091   0.00008
 120       10D+1       -0.00028   0.00002   0.00032  -0.00048  -0.00001
 121       10D-1        0.00061   0.00005  -0.00061   0.00118  -0.00013
 122       10D+2        0.00019  -0.00025   0.00004   0.00033   0.00013
 123       10D-2        0.00017   0.00006  -0.00001   0.00036  -0.00025
 124       11F 0        0.00005  -0.00002   0.00005   0.00008  -0.00003
 125       11F+1        0.00009  -0.00003  -0.00005   0.00009  -0.00001
 126       11F-1       -0.00021  -0.00002   0.00012  -0.00022   0.00003
 127       11F+2       -0.00010   0.00002   0.00004  -0.00010  -0.00004
 128       11F-2       -0.00010   0.00000   0.00006  -0.00010   0.00005
 129       11F+3       -0.00003   0.00002   0.00000  -0.00005   0.00002
 130       11F-3        0.00001  -0.00003   0.00000   0.00001   0.00005
 131 5   O  1S          0.00001   0.43537   0.00004   0.00008   0.00004
 132        2S         -0.00004   0.63979   0.00008   0.00015   0.00006
 133        3S          0.00017   0.03336  -0.00016  -0.00031  -0.00006
 134        4S         -0.00013  -0.02145   0.00064   0.00124   0.00050
 135        5S          0.00088   0.00747  -0.00148  -0.00287  -0.00088
 136        6PX         0.00008   0.00107  -0.00001  -0.00001   0.00002
 137        6PY         0.00001  -0.00159  -0.00003  -0.00006   0.00006
 138        6PZ        -0.00000  -0.00000  -0.00005   0.00003  -0.00000
 139        7PX        -0.00006  -0.00224   0.00011   0.00022  -0.00008
 140        7PY        -0.00009   0.00245   0.00009   0.00018  -0.00034
 141        7PZ         0.00000   0.00001   0.00012  -0.00006  -0.00000
 142        8PX         0.00030   0.00022  -0.00065  -0.00125  -0.00098
 143        8PY        -0.00012  -0.00112   0.00015   0.00030  -0.00045
 144        8PZ        -0.00000  -0.00000  -0.00025   0.00013   0.00000
 145        9D 0       -0.00002  -0.00022   0.00001   0.00002  -0.00006
 146        9D+1       -0.00000  -0.00000  -0.00004   0.00002  -0.00000
 147        9D-1        0.00000   0.00000   0.00010  -0.00005  -0.00000
 148        9D+2        0.00006   0.00014   0.00001   0.00002   0.00003
 149        9D-2       -0.00002   0.00006  -0.00003  -0.00006   0.00009
 150       10D 0        0.00004   0.00097  -0.00004  -0.00007   0.00016
 151       10D+1        0.00000   0.00001   0.00011  -0.00005   0.00000
 152       10D-1       -0.00000  -0.00000  -0.00032   0.00016   0.00000
 153       10D+2       -0.00019  -0.00058  -0.00002  -0.00003  -0.00019
 154       10D-2        0.00007  -0.00027   0.00009   0.00017  -0.00026
 155       11F 0       -0.00000  -0.00000  -0.00003   0.00002  -0.00000
 156       11F+1        0.00008   0.00009  -0.00003  -0.00005   0.00005
 157       11F-1        0.00001  -0.00013  -0.00000  -0.00001   0.00002
 158       11F+2        0.00000   0.00000   0.00001  -0.00001   0.00000
 159       11F-2       -0.00000  -0.00000  -0.00009   0.00004   0.00000
 160       11F+3       -0.00007  -0.00032  -0.00000  -0.00000   0.00003
 161       11F-3        0.00004   0.00004   0.00001   0.00002  -0.00005
 162 6   H  1S         -0.00006   0.00077  -0.00005  -0.00010   0.00012
 163        2S         -0.00018   0.00114   0.00032   0.00063  -0.00089
 164        3S          0.00005  -0.00193  -0.00019  -0.00037  -0.00043
 165        4PX        -0.00004   0.00037   0.00005   0.00010  -0.00030
 166        4PY        -0.00004   0.00086  -0.00001  -0.00001  -0.00012
 167        4PZ         0.00000  -0.00000  -0.00001   0.00001   0.00000
                           6         7         8         9        10
                           O         O         O         O         O
     Eigenvalues --    -9.86108  -7.59686  -7.59433  -7.59431  -1.38046
   1 1   O  1S         -0.00005  -0.00003  -0.00014   0.00000  -0.03424
   2        2S         -0.00020  -0.00005  -0.00023   0.00001  -0.08014
   3        3S          0.00168  -0.00008  -0.00048   0.00002   0.11146
   4        4S         -0.00418   0.00105   0.00427  -0.00015   0.14846
   5        5S          0.00062   0.00005   0.00221  -0.00008   0.01731
   6        6PX        -0.00017  -0.00004  -0.00009   0.00000  -0.02273
   7        6PY        -0.00045  -0.00008  -0.00032   0.00001  -0.06329
   8        6PZ         0.00000   0.00000   0.00000   0.00004   0.00006
   9        7PX         0.00118   0.00029  -0.00123   0.00004  -0.01757
  10        7PY         0.00303  -0.00076  -0.00293   0.00010  -0.04839
  11        7PZ        -0.00000  -0.00000   0.00001   0.00027   0.00004
  12        8PX        -0.00043  -0.00036  -0.00055   0.00002   0.00075
  13        8PY        -0.00024  -0.00016  -0.00150   0.00005   0.00096
  14        8PZ         0.00000   0.00000  -0.00001  -0.00034  -0.00000
  15        9D 0       -0.00004  -0.00005   0.00001  -0.00000  -0.00240
  16        9D+1        0.00000  -0.00000  -0.00000  -0.00004  -0.00000
  17        9D-1       -0.00000   0.00000  -0.00000  -0.00001  -0.00001
  18        9D+2       -0.00008   0.00002  -0.00004   0.00000  -0.00308
  19        9D-2        0.00006  -0.00000   0.00002  -0.00000   0.00258
  20       10D 0        0.00077   0.00015  -0.00042   0.00001  -0.00525
  21       10D+1        0.00000   0.00000   0.00000   0.00007  -0.00001
  22       10D-1        0.00000   0.00000  -0.00001  -0.00021  -0.00001
  23       10D+2        0.00115  -0.00037  -0.00029   0.00001  -0.00715
  24       10D-2       -0.00093  -0.00016   0.00041  -0.00001   0.00591
  25       11F 0        0.00000   0.00000   0.00000   0.00002  -0.00000
  26       11F+1       -0.00009  -0.00003  -0.00007   0.00000   0.00042
  27       11F-1       -0.00019  -0.00010  -0.00018   0.00001   0.00126
  28       11F+2        0.00000  -0.00000   0.00000   0.00000  -0.00000
  29       11F-2       -0.00000  -0.00000  -0.00000  -0.00004   0.00000
  30       11F+3       -0.00021  -0.00001  -0.00026   0.00001   0.00168
  31       11F-3       -0.00014  -0.00004  -0.00015   0.00001   0.00104
  32 2   Cl 1S         -0.29234  -0.00073  -0.00002  -0.00000   0.06804
  33        2S         -0.21997  -0.00072  -0.00003   0.00000   0.06017
  34        3S          0.82676   0.00207   0.00006   0.00000  -0.38139
  35        4S          0.03067  -0.00022   0.00006  -0.00000   0.53693
  36        5S         -0.00625  -0.00052  -0.00010   0.00001   0.20940
  37        6PX        -0.00164   0.70228   0.10338  -0.00148  -0.00585
  38        6PY         0.00019  -0.10335   0.70199  -0.02447   0.00017
  39        6PZ         0.00000  -0.00210   0.02442   0.70956   0.00007
  40        7PX        -0.00119   0.34055   0.05008  -0.00072  -0.00314
  41        7PY         0.00013  -0.05008   0.33978  -0.01184   0.00003
  42        7PZ         0.00000  -0.00102   0.01182   0.34351   0.00003
  43        8PX        -0.00048   0.07235   0.01063  -0.00015   0.00761
  44        8PY         0.00006  -0.01077   0.07316  -0.00255   0.00004
  45        8PZ         0.00000  -0.00022   0.00254   0.07377  -0.00008
  46        9PX         0.00221  -0.01395  -0.00201   0.00002   0.00302
  47        9PY        -0.00018   0.00235  -0.01549   0.00054  -0.00010
  48        9PZ        -0.00001   0.00004  -0.00053  -0.01540  -0.00008
  49       10PX         0.00245   0.00147   0.00049  -0.00001  -0.00464
  50       10PY        -0.00044   0.00047   0.00123  -0.00004  -0.00311
  51       10PZ        -0.00001  -0.00000   0.00003   0.00100   0.00001
  52       11D 0        0.00010   0.00061  -0.00058   0.00002   0.00656
  53       11D+1        0.00000   0.00000  -0.00001  -0.00022   0.00007
  54       11D-1        0.00000  -0.00000  -0.00002  -0.00064   0.00003
  55       11D+2       -0.00024  -0.00092  -0.00041   0.00001  -0.01310
  56       11D-2        0.00000   0.00021  -0.00014   0.00000   0.00168
  57       12D 0        0.00141  -0.00217   0.00301  -0.00010   0.00144
  58       12D+1        0.00001  -0.00002  -0.00002  -0.00099   0.00002
  59       12D-1        0.00000   0.00000   0.00013   0.00346   0.00001
  60       12D+2       -0.00246   0.00307   0.00156  -0.00006  -0.00488
  61       12D-2        0.00042  -0.00065  -0.00140   0.00006   0.00194
  62       13F 0       -0.00000  -0.00000  -0.00001  -0.00018  -0.00003
  63       13F+1        0.00057   0.00034   0.00026  -0.00001   0.00506
  64       13F-1       -0.00244   0.00027  -0.00009   0.00000  -0.01575
  65       13F+2        0.00001   0.00000   0.00001   0.00027   0.00006
  66       13F-2       -0.00001   0.00000   0.00001   0.00033  -0.00006
  67       13F+3       -0.00113  -0.00034   0.00026  -0.00001  -0.00865
  68       13F-3       -0.00031   0.00020   0.00018  -0.00001  -0.00182
  69 3   O  1S         -0.00004  -0.00004   0.00007   0.00011  -0.03396
  70        2S         -0.00020  -0.00007   0.00012   0.00019  -0.07946
  71        3S          0.00167  -0.00004   0.00024   0.00033   0.11022
  72        4S         -0.00408   0.00103  -0.00215  -0.00329   0.14883
  73        5S          0.00036   0.00151  -0.00123  -0.00225   0.01461
  74        6PX        -0.00011  -0.00002   0.00003   0.00005  -0.01440
  75        6PY         0.00025   0.00005  -0.00005  -0.00015   0.03346
  76        6PZ         0.00041   0.00008  -0.00016  -0.00022   0.05541
  77        7PX         0.00079   0.00023   0.00050   0.00067  -0.01101
  78        7PY        -0.00165   0.00052  -0.00067  -0.00146   0.02588
  79        7PZ        -0.00268   0.00094  -0.00145  -0.00207   0.04292
  80        8PX        -0.00037  -0.00066   0.00006   0.00030   0.00058
  81        8PY         0.00019   0.00033  -0.00071  -0.00059  -0.00050
  82        8PZ         0.00018   0.00060  -0.00054  -0.00134  -0.00154
  83        9D 0        0.00007   0.00000  -0.00003  -0.00001   0.00249
  84        9D+1       -0.00003   0.00002   0.00002  -0.00000  -0.00146
  85        9D-1        0.00007   0.00002   0.00000  -0.00001   0.00335
  86        9D+2       -0.00004   0.00003   0.00000   0.00003  -0.00078
  87        9D-2       -0.00002   0.00000  -0.00003   0.00002  -0.00087
  88       10D 0       -0.00092   0.00022  -0.00026  -0.00017   0.00579
  89       10D+1        0.00054   0.00006   0.00013   0.00024  -0.00323
  90       10D-1       -0.00119   0.00010  -0.00020  -0.00050   0.00783
  91       10D+2        0.00037  -0.00023  -0.00006   0.00005  -0.00199
  92       10D-2        0.00032   0.00009   0.00018   0.00011  -0.00185
  93       11F 0       -0.00007  -0.00002   0.00005   0.00006   0.00054
  94       11F+1        0.00010   0.00000  -0.00009  -0.00010  -0.00079
  95       11F-1       -0.00026  -0.00013   0.00013   0.00021   0.00174
  96       11F+2        0.00012   0.00003  -0.00005  -0.00011  -0.00086
  97       11F-2        0.00013   0.00002  -0.00005  -0.00012  -0.00077
  98       11F+3       -0.00002   0.00000   0.00001   0.00005   0.00031
  99       11F-3        0.00001  -0.00001  -0.00002  -0.00002  -0.00022
 100 4   O  1S         -0.00004  -0.00004   0.00006  -0.00012  -0.03391
 101        2S         -0.00020  -0.00007   0.00010  -0.00020  -0.07935
 102        3S          0.00167  -0.00004   0.00022  -0.00035   0.11006
 103        4S         -0.00407   0.00103  -0.00192   0.00344   0.14863
 104        5S          0.00036   0.00151  -0.00107   0.00233   0.01456
 105        6PX        -0.00011  -0.00002   0.00003  -0.00005  -0.01468
 106        6PY         0.00025   0.00005  -0.00004   0.00016   0.03339
 107        6PZ        -0.00041  -0.00008   0.00014  -0.00023  -0.05526
 108        7PX         0.00080   0.00022   0.00046  -0.00071  -0.01124
 109        7PY        -0.00165   0.00052  -0.00057   0.00151   0.02583
 110        7PZ         0.00268  -0.00094   0.00130  -0.00217  -0.04281
 111        8PX        -0.00037  -0.00066   0.00004  -0.00031   0.00060
 112        8PY         0.00019   0.00033  -0.00067   0.00064  -0.00050
 113        8PZ        -0.00018  -0.00059   0.00045  -0.00137   0.00154
 114        9D 0        0.00007   0.00000  -0.00002   0.00002   0.00248
 115        9D+1        0.00003  -0.00002  -0.00002   0.00000   0.00148
 116        9D-1       -0.00007  -0.00002  -0.00000  -0.00001  -0.00334
 117        9D+2       -0.00004   0.00003   0.00000  -0.00003  -0.00077
 118        9D-2       -0.00002   0.00000  -0.00003  -0.00002  -0.00089
 119       10D 0       -0.00092   0.00022  -0.00024   0.00018   0.00576
 120       10D+1       -0.00055  -0.00005  -0.00011   0.00025   0.00330
 121       10D-1        0.00119  -0.00010   0.00016  -0.00051  -0.00781
 122       10D+2        0.00037  -0.00023  -0.00006  -0.00004  -0.00197
 123       10D-2        0.00032   0.00009   0.00018  -0.00012  -0.00189
 124       11F 0        0.00007   0.00002  -0.00005   0.00006  -0.00053
 125       11F+1        0.00011   0.00000  -0.00008   0.00010  -0.00080
 126       11F-1       -0.00026  -0.00013   0.00012  -0.00021   0.00173
 127       11F+2       -0.00012  -0.00003   0.00004  -0.00012   0.00085
 128       11F-2       -0.00014  -0.00002   0.00004  -0.00012   0.00078
 129       11F+3       -0.00002   0.00000   0.00000  -0.00005   0.00032
 130       11F-3        0.00001  -0.00001  -0.00002   0.00003  -0.00021
 131 5   O  1S         -0.00001   0.00004  -0.00000   0.00000  -0.02593
 132        2S         -0.00010   0.00006   0.00002  -0.00000  -0.06070
 133        3S          0.00063   0.00093  -0.00016   0.00001   0.08285
 134        4S         -0.00089  -0.00274   0.00046  -0.00002   0.12287
 135        5S          0.00363  -0.00374  -0.00052   0.00002   0.01251
 136        6PX         0.00026   0.00002  -0.00001   0.00000   0.03665
 137        6PY        -0.00001  -0.00005  -0.00009   0.00000  -0.01540
 138        6PZ        -0.00000  -0.00000  -0.00000  -0.00007  -0.00010
 139        7PX        -0.00026  -0.00281   0.00003  -0.00000   0.03392
 140        7PY        -0.00011   0.00078   0.00044  -0.00001  -0.01426
 141        7PZ         0.00000   0.00001   0.00001   0.00042  -0.00010
 142        8PX         0.00141  -0.00159  -0.00002  -0.00000  -0.00243
[...]
  19        9D-2       -0.00000  -0.00947
  20       10D 0        0.00026  -0.09778
  21       10D+1       -0.02879  -0.00029
  22       10D-1        0.01218  -0.00023
  23       10D+2        0.00013  -0.07205
  24       10D-2       -0.00013   0.08555
  25       11F 0        0.00393  -0.00006
  26       11F+1       -0.00002   0.00945
  27       11F-1       -0.00003   0.02646
  28       11F+2        0.00889  -0.00003
  29       11F-2        0.00041   0.00009
  30       11F+3       -0.00002   0.02166
  31       11F-3       -0.00002   0.00771
  32 2   Cl 1S         -0.00004  -0.00464
  33        2S          0.00011   0.01535
  34        3S          0.00019   0.02280
  35        4S         -0.00017   0.00161
  36        5S         -0.00013  -0.01283
  37        6PX        -0.00001  -0.00145
  38        6PY         0.00000   0.00194
  39        6PZ         0.00026   0.00000
  40        7PX         0.00007   0.00833
  41        7PY        -0.00002  -0.00993
  42        7PZ         0.00169  -0.00001
  43        8PX        -0.00061  -0.03792
  44        8PY        -0.00011   0.13093
  45        8PZ        -0.11045  -0.00003
  46        9PX         0.00263   0.06055
  47        9PY         0.00120  -0.70562
  48        9PZ         0.67975   0.00027
  49       10PX        -0.00114   0.02149
  50       10PY        -0.00010   0.38289
  51       10PZ        -0.40919  -0.00054
  52       11D 0       -0.00029   0.05730
  53       11D+1        0.03917   0.00023
  54       11D-1       -0.07553   0.00013
  55       11D+2        0.00008   0.01986
  56       11D-2       -0.00012  -0.05434
  57       12D 0       -0.00069   0.32969
  58       12D+1        0.10316   0.00149
  59       12D-1       -0.31875   0.00008
  60       12D+2       -0.00030   0.06752
  61       12D-2       -0.00050  -0.09732
  62       13F 0        0.03504  -0.00013
  63       13F+1        0.00035   0.02487
  64       13F-1        0.00021  -0.02371
  65       13F+2       -0.05604  -0.00015
  66       13F-2       -0.05349  -0.00026
  67       13F+3       -0.00016   0.06703
  68       13F-3       -0.00033   0.02706
  69 3   O  1S         -0.98577   0.56427
  70        2S          1.21100  -0.69455
  71        3S         -1.21249   0.71024
  72        4S          1.51901  -0.92753
  73        5S         -0.71977   0.44314
  74        6PX         0.01643  -0.00973
  75        6PY        -0.03336   0.01744
  76        6PZ        -0.04909   0.03126
  77        7PX        -0.08891   0.06122
  78        7PY         0.19120  -0.12964
  79        7PZ         0.31147  -0.18955
  80        8PX         0.04846  -0.04528
  81        8PY        -0.11392   0.01163
  82        8PZ        -0.11796   0.11764
  83        9D 0       -0.00344   0.00725
  84        9D+1        0.00720   0.00225
  85        9D-1       -0.01419   0.00267
  86        9D+2       -0.00236  -0.00248
  87        9D-2       -0.00093  -0.00827
  88       10D 0        0.06369  -0.04469
  89       10D+1       -0.05013   0.01510
  90       10D-1        0.10817  -0.05327
  91       10D+2       -0.01015   0.01923
  92       10D-2       -0.01603   0.03619
  93       11F 0        0.00025  -0.00839
  94       11F+1       -0.01179   0.00700
  95       11F-1        0.02748  -0.01258
  96       11F+2       -0.01043   0.00293
  97       11F-2       -0.01222   0.00859
  98       11F+3        0.00365  -0.00546
  99       11F-3       -0.00092  -0.00203
 100 4   O  1S          0.98444   0.56571
 101        2S         -1.20936  -0.69633
 102        3S          1.21083   0.71202
 103        4S         -1.51692  -0.92969
 104        5S          0.71934   0.44442
 105        6PX        -0.01666  -0.00993
 106        6PY         0.03330   0.01747
 107        6PZ        -0.04892  -0.03128
 108        7PX         0.09051   0.06243
 109        7PY        -0.19076  -0.12977
 110        7PZ         0.31046   0.18962
 111        8PX        -0.04918  -0.04603
 112        8PY         0.11390   0.01183
 113        8PZ        -0.11769  -0.11761
 114        9D 0        0.00336   0.00727
 115        9D+1        0.00722  -0.00216
 116        9D-1       -0.01416  -0.00264
 117        9D+2        0.00236  -0.00248
 118        9D-2        0.00090  -0.00828
 119       10D 0       -0.06312  -0.04464
 120       10D+1       -0.05076  -0.01571
 121       10D-1        0.10783   0.05318
 122       10D+2        0.00993   0.01911
 123       10D-2        0.01648   0.03650
 124       11F 0        0.00008   0.00830
 125       11F+1        0.01189   0.00715
 126       11F-1       -0.02731  -0.01254
 127       11F+2       -0.01029  -0.00283
 128       11F-2       -0.01243  -0.00870
 129       11F+3       -0.00370  -0.00548
 130       11F-3        0.00085  -0.00209
 131 5   O  1S         -0.00221  -0.47821
 132        2S          0.00271   0.58915
 133        3S         -0.00269  -0.59334
 134        4S          0.00305   0.69851
 135        5S         -0.00124  -0.35579
 136        6PX        -0.00008  -0.01930
 137        6PY         0.00008   0.00250
 138        6PZ         0.00670   0.00005
 139        7PX         0.00041   0.09228
 140        7PY        -0.00032  -0.03109
 141        7PZ        -0.01231  -0.00025
 142        8PX         0.00007  -0.01604
 143        8PY         0.00020   0.07466
 144        8PZ         0.03497   0.00021
 145        9D 0       -0.00001   0.01326
 146        9D+1        0.00423   0.00006
 147        9D-1       -0.01472   0.00004
 148        9D+2       -0.00002  -0.00526
 149        9D-2       -0.00001  -0.01539
 150       10D 0       -0.00006  -0.05623
 151       10D+1       -0.00896  -0.00026
 152       10D-1        0.03893  -0.00011
 153       10D+2        0.00015   0.03348
 154       10D-2        0.00003   0.04876
 155       11F 0        0.00412   0.00009
 156       11F+1        0.00002  -0.01242
 157       11F-1       -0.00002   0.00476
 158       11F+2       -0.00128  -0.00008
 159       11F-2        0.01201  -0.00001
 160       11F+3        0.00007   0.01423
 161       11F-3       -0.00000   0.00447
 162 6   H  1S         -0.00016  -0.04977
 163        2S          0.00006   0.06655
 164        3S          0.00029   0.06892
 165        4PX         0.00000   0.01750
 166        4PY        -0.00010  -0.03033
 167        4PZ         0.00166  -0.00006
          Condensed to atoms (all electrons):
               1          2          3          4          5          6
     1  O    8.024008   0.487171  -0.074389  -0.074433  -0.057966   0.004080
     2  Cl   0.487171  14.415157   0.475874   0.475863   0.210064   0.005077
     3  O   -0.074389   0.475874   8.043082  -0.072384  -0.049793  -0.001014
     4  O   -0.074433   0.475863  -0.072384   8.043150  -0.049737  -0.001010
     5  O   -0.057966   0.210064  -0.049793  -0.049737   8.008330   0.273922
     6  H    0.004080   0.005077  -0.001014  -0.001010   0.273922   0.363623
 Mulliken charges:
               1
     1  O   -0.308470
     2  Cl   0.930793
     3  O   -0.321376
     4  O   -0.321449
     5  O   -0.334820
     6  H    0.355322
 Sum of Mulliken charges =  -0.00000
 Mulliken charges with hydrogens summed into heavy atoms:
               1
     1  O   -0.308470
     2  Cl   0.930793
     3  O   -0.321376
     4  O   -0.321449
     5  O    0.020502
 Electronic spatial extent (au):  <R**2>=            332.2703
 Charge=             -0.0000 electrons
 Dipole moment (field-independent basis, Debye):
    X=             -2.4397    Y=             -1.3069    Z=              0.0037  Tot=              2.7677
 Quadrupole moment (field-independent basis, Debye-Ang):
   XX=            -29.8800   YY=            -35.4589   ZZ=            -36.7392
   XY=              3.0740   XZ=             -0.0146   YZ=             -0.0058
 Traceless Quadrupole moment (field-independent basis, Debye-Ang):
   XX=              4.1461   YY=             -1.4329   ZZ=             -2.7132
   XY=              3.0740   XZ=             -0.0146   YZ=             -0.0058
 Octapole moment (field-independent basis, Debye-Ang**2):
  XXX=             -9.1502  YYY=             -2.4096  ZZZ=              0.0059  XYY=             -3.8899
  XXY=             -6.6485  XXZ=              0.0061  XZZ=             -1.2518  YZZ=              2.3222
  YYZ=              0.0087  XYZ=              0.0197
 Hexadecapole moment (field-independent basis, Debye-Ang**3):
 XXXX=           -107.4626 YYYY=           -122.0048 ZZZZ=           -120.6633 XXXY=             12.7712
 XXXZ=             -0.0498 YYYX=              2.0719 YYYZ=             -0.0024 ZZZX=             -0.0072
 ZZZY=             -0.0064 XXYY=            -38.4191 XXZZ=            -42.0266 YYZZ=            -40.7913
 XXYZ=             -0.0202 YYXZ=             -0.0108 ZZXY=              0.9972
 N-N= 2.971042212608D+02 E-N=-2.396406480078D+03  KE= 7.593772754667D+02
 Orbital energies and kinetic energies (alpha):
                                 1                 2
   1         O              -102.091304        137.121396
   2         O               -19.323072         29.113192
   3         O               -19.277413         29.111969
   4         O               -19.277378         29.112436
   5         O               -19.275930         29.112147
   6         O                -9.861076         21.568697
   7         O                -7.596864         20.623389
   8         O                -7.594331         20.624377
   9         O                -7.594314         20.624703
  10         O                -1.380457          2.952529
  11         O                -1.151174          3.001079
  12         O                -1.150206          2.879527
  13         O                -1.148516          3.053703
  14         O                -0.769284          2.940002
  15         O                -0.661741          2.965524
  16         O                -0.608085          2.744444
  17         O                -0.603609          2.822793
  18         O                -0.538727          2.412234
  19         O                -0.471446          2.167071
  20         O                -0.454807          2.275786
  21         O                -0.450773          2.327496
  22         O                -0.441756          2.361137
  23         O                -0.395163          2.499773
  24         O                -0.376024          2.617287
  25         O                -0.353071          2.655944
  26         V                -0.017482          3.333041
  27         V                 0.011424          1.873699
  28         V                 0.053206          3.757293
  29         V                 0.080220          3.228609
  30         V                 0.089972          3.405642
  31         V                 0.278433          1.441778
  32         V                 0.297435          1.367497
  33         V                 0.303783          1.340001
  34         V                 0.324737          1.509235
  35         V                 0.346501          1.551407
  36         V                 0.393323          1.471017
  37         V                 0.395081          1.465010
  38         V                 0.396178          1.717611
  39         V                 0.398937          1.307471
  40         V                 0.412770          1.441062
  41         V                 0.432500          2.400759
  42         V                 0.442589          2.133982
  43         V                 0.514131          1.751793
  44         V                 0.532876          1.386220
  45         V                 0.549496          2.079603
  46         V                 0.553345          1.310394
  47         V                 0.558086          1.508562
  48         V                 0.565749          1.746727
  49         V                 0.570124          1.727054
  50         V                 0.622719          1.425817
  51         V                 0.686173          2.038436
  52         V                 0.783877          2.587978
  53         V                 0.807914          2.283379
  54         V                 0.894478          3.288769
  55         V                 0.905449          3.088853
  56         V                 1.069092          2.949548
  57         V                 1.191295          2.258228
  58         V                 1.263507          2.619949
  59         V                 1.338335          3.181287
  60         V                 1.349317          3.083731
  61         V                 1.364885          2.835546
  62         V                 1.376192          3.123978
  63         V                 1.392073          2.431566
  64         V                 1.450794          2.476148
  65         V                 1.537019          2.756416
  66         V                 1.565863          3.002126
  67         V                 1.578200          2.773421
  68         V                 1.632990          3.609696
  69         V                 1.652521          3.943169
  70         V                 1.720102          3.829417
  71         V                 1.736355          3.913645
  72         V                 1.750338          4.237509
  73         V                 1.846169          3.239749
  74         V                 1.864881          3.435394
  75         V                 1.880420          3.431501
  76         V                 1.939851          3.592912
  77         V                 1.996158          4.025203
  78         V                 2.059585          3.595484
  79         V                 2.083657          4.408452
  80         V                 2.132768          4.483167
  81         V                 2.142111          4.588879
  82         V                 2.157148          4.311728
  83         V                 2.201970          4.762148
  84         V                 2.212156          4.320081
  85         V                 2.321885          5.044211
  86         V                 2.333183          5.523079
  87         V                 2.409194          4.733316
  88         V                 2.460155          5.588218
  89         V                 2.461568          5.604213
  90         V                 2.502005          6.172995
  91         V                 2.548704          6.440617
  92         V                 2.630460          6.890441
  93         V                 2.654767          6.444726
  94         V                 2.678270          6.945491
  95         V                 2.727644          7.099706
  96         V                 2.816037          5.684023
  97         V                 2.818535          5.871841
  98         V                 2.867844          5.914005
  99         V                 2.870736          6.937866
 100         V                 2.952251          4.963612
 101         V                 2.954229          6.290215
 102         V                 3.057989          6.163641
 103         V                 3.094862          6.392790
 104         V                 3.123662          6.273000
 105         V                 3.126173          6.266043
 106         V                 3.204228          6.439695
 107         V                 3.622561          7.791922
 108         V                 3.738719          7.181723
 109         V                 4.113140          7.496865
 110         V                 4.154127          7.841908
 111         V                 4.216000          7.951277
 112         V                 5.012454          6.452963
 113         V                 5.014130          6.441465
 114         V                 5.045933          6.508822
 115         V                 5.059489          6.510717
 116         V                 5.078781          6.437731
 117         V                 5.080055          6.431574
 118         V                 5.082579          6.430093
 119         V                 5.083917          6.460618
 120         V                 5.086860          6.458939
 121         V                 5.095662          6.510854
 122         V                 5.133647          6.659939
 123         V                 5.174566          6.979996
 124         V                 5.220464          6.867712
 125         V                 5.233221          6.821026
 126         V                 5.271494          7.029595
 127         V                 5.320830          7.273610
 128         V                 5.329501          7.339409
 129         V                 5.361115          7.304514
 130         V                 5.371384          7.164371
 131         V                 5.482212          7.531607
 132         V                 5.596333          8.173799
 133         V                 5.645578          7.868734
 134         V                 5.678310          8.072241
 135         V                 5.755226          8.526008
 136         V                 5.757248          8.167040
 137         V                 5.782182          8.503182
 138         V                 5.974355          8.383653
 139         V                 6.099645          8.806169
 140         V                 6.223991          9.320328
 141         V                 6.230468          9.302746
 142         V                 6.254432          9.259605
 143         V                 6.287641          9.354748
 144         V                 6.333781          9.409331
 145         V                 6.400652          9.518651
 146         V                 6.436028          9.529539
 147         V                 6.467781          9.412937
 148         V                 6.505295          9.532289
 149         V                 6.586902          9.122346
 150         V                 6.662495          9.600827
 151         V                 6.691472          9.607149
 152         V                 6.717495          9.663965
 153         V                 6.748253          9.886225
 154         V                 6.815137         10.005312
 155         V                 6.893458         10.078666
 156         V                 6.912920         10.109422
 157         V                 6.948277         10.484537
 158         V                 6.954236         10.259104
 159         V                 7.096123          9.965021
 160         V                10.943976         33.608470
 161         V                11.196443         33.374529
 162         V                11.232654         33.369806
 163         V                29.643248         50.131219
 164         V                43.304452        108.103828
 165         V                43.462524        108.513433
 166         V                43.551473        108.579180
 167         V                43.625337        108.655145
 Total kinetic energy from orbitals= 7.593772754667D+02
 No NMR shielding tensors so no spin-rotation constants.
 Leave Link  601 at Sat Nov 15 17:31:36 2025, MaxMem=  2097152000 cpu:               1.7 elap:               0.3
 (Enter /home/pcmt/gaussian/g16.C.01/g16/l9999.exe)

 Test job not archived.
 1\1\GINC-U-0-13\SP\RPBE1PBE\Gen\Cl1H1O4\VALLET\15-Nov-2025\0\\#p PBE1P
 BE/GEN GFInput GFOldPrint 5D 7F IOP(4/69=2, 6/7=3) EmpiricalDispersion
 =GD3BJ Scf=(NoVarAcc,MaxCycle=200,conver=8) Integral=(Grid=UltraFine) 
 Guess=CheckPoint Geom=CheckPoint Symm=Loose\\HClO4.pbe0-d3bj-cosmo.opt
 g-freq.chk\\0,1\O,0,1.4397959245,-0.1834555547,-0.5278732272\Cl,0,0.16
 32818646,0.3065894956,-0.1992332568\O,0,-0.8626099211,-0.1248610316,-1
 .06658112\O,0,-0.17096858,0.1788604151,1.1658904357\O,0,0.3529398984,1
 .8691752393,-0.4712004504\H,0,-0.4948451863,2.3128444363,-0.2701723813
 \\Version=ES64L-G16RevC.01\State=1-A\HF=-761.1005454\RMSD=9.314e-09\Di
 pole=-0.5083866,0.9626034,0.0251371\Quadrupole=-1.0694559,3.0931769,-2
 .023721,-2.2743146,0.0181897,0.0052034\PG=C01 [X(Cl1H1O4)]\\@


 IT MATTERS NOT HOW DEEP YOU PLOW,
 BUT HOW LONG YOU STAY IN THE FURROW.
 Job cpu time:       0 days  0 hours  1 minutes 30.0 seconds.
 Elapsed time:       0 days  0 hours  0 minutes 12.1 seconds.
 File lengths (MBytes):  RWF=     14 Int=      0 D2E=      0 Chk=      5 Scr=      1
 Normal termination of Gaussian 16 at Sat Nov 15 17:31:37 2025.
