 Entering Gaussian System, Link 0=/home/pcmt/gaussian/g16.C.01/g16/g16
 Initial command:
 /home/pcmt/gaussian/g16.C.01/g16/l1.exe "/state/partition2/vallet/1061528.phlam-s-sakura/Gau-157966.inp" -scrdir="/state/partition2/vallet/1061528.phlam-s-sakura/"
 Entering Link 1 = /home/pcmt/gaussian/g16.C.01/g16/l1.exe PID=    157967.
  
 Copyright (c) 1988-2019, Gaussian, Inc.  All Rights Reserved.
  
 This is part of the Gaussian(R) 16 program.  It is based on
 the Gaussian(R) 09 system (copyright 2009, Gaussian, Inc.),
 the Gaussian(R) 03 system (copyright 2003, Gaussian, Inc.),
 the Gaussian(R) 98 system (copyright 1998, Gaussian, Inc.),
 the Gaussian(R) 94 system (copyright 1995, Gaussian, Inc.),
 the Gaussian 92(TM) system (copyright 1992, Gaussian, Inc.),
 the Gaussian 90(TM) system (copyright 1990, Gaussian, Inc.),
 the Gaussian 88(TM) system (copyright 1988, Gaussian, Inc.),
 the Gaussian 86(TM) system (copyright 1986, Carnegie Mellon
 University), and the Gaussian 82(TM) system (copyright 1983,
 Carnegie Mellon University). Gaussian is a federally registered
 trademark of Gaussian, Inc.
  
 This software contains proprietary and confidential information,
 including trade secrets, belonging to Gaussian, Inc.
  
 This software is provided under written license and may be
 used, copied, transmitted, or stored only in accord with that
 written license.
  
 The following legend is applicable only to US Government
 contracts under FAR:
  
                    RESTRICTED RIGHTS LEGEND
  
 Use, reproduction and disclosure by the US Government is
 subject to restrictions as set forth in subparagraphs (a)
 and (c) of the Commercial Computer Software - Restricted
 Rights clause in FAR 52.227-19.
  
 Gaussian, Inc.
 340 Quinnipiac St., Bldg. 40, Wallingford CT 06492
  
  
 ---------------------------------------------------------------
 Warning -- This program may not be used in any manner that
 competes with the business of Gaussian, Inc. or will provide
 assistance to any competitor of Gaussian, Inc.  The licensee
 of this program is prohibited from giving any competitor of
 Gaussian, Inc. access to this program.  By using this program,
 the user acknowledges that Gaussian, Inc. is engaged in the
 business of creating and licensing software in the field of
 computational chemistry and represents and warrants to the
 licensee that it is not a competitor of Gaussian, Inc. and that
 it will not use this program in any manner prohibited above.
 ---------------------------------------------------------------
  

 Cite this work as:
 Gaussian 16, Revision C.01,
 M. J. Frisch, G. W. Trucks, H. B. Schlegel, G. E. Scuseria, 
 M. A. Robb, J. R. Cheeseman, G. Scalmani, V. Barone, 
 G. A. Petersson, H. Nakatsuji, X. Li, M. Caricato, A. V. Marenich, 
 J. Bloino, B. G. Janesko, R. Gomperts, B. Mennucci, H. P. Hratchian, 
 J. V. Ortiz, A. F. Izmaylov, J. L. Sonnenberg, D. Williams-Young, 
 F. Ding, F. Lipparini, F. Egidi, J. Goings, B. Peng, A. Petrone, 
 T. Henderson, D. Ranasinghe, V. G. Zakrzewski, J. Gao, N. Rega, 
 G. Zheng, W. Liang, M. Hada, M. Ehara, K. Toyota, R. Fukuda, 
 J. Hasegawa, M. Ishida, T. Nakajima, Y. Honda, O. Kitao, H. Nakai, 
 T. Vreven, K. Throssell, J. A. Montgomery, Jr., J. E. Peralta, 
 F. Ogliaro, M. J. Bearpark, J. J. Heyd, E. N. Brothers, K. N. Kudin, 
 V. N. Staroverov, T. A. Keith, R. Kobayashi, J. Normand, 
 K. Raghavachari, A. P. Rendell, J. C. Burant, S. S. Iyengar, 
 J. Tomasi, M. Cossi, J. M. Millam, M. Klene, C. Adamo, R. Cammi, 
 J. W. Ochterski, R. L. Martin, K. Morokuma, O. Farkas, 
 J. B. Foresman, and D. J. Fox, Gaussian, Inc., Wallingford CT, 2019.
 
 ******************************************
 Gaussian 16:  ES64L-G16RevC.01  3-Jul-2019
                28-Oct-2025 
 ******************************************
 %mem=16000Mb
 %NProc=8
 Will use up to    8 processors via shared memory.
 %chk=HClO4.pbe0-d3bj-cosmo.optg-freq.chk
 ----------------------------------------------------------------------
 #p PBE1PBE/GEN GFInput GFOldPrint 5D 7F IOP(4/69=2, 6/7=3) EmpiricalDi
 spersion=GD3BJ Scf=(NoVarAcc,MaxCycle=200,conver=8) Integral=(Grid=Ult
 raFine) Guess=Harris Symm=Loose Opt Freq=(Raman, InternalModes) SCRF=(
 COSMO, Solvent=Water, Read)
 ----------------------------------------------------------------------
 1/18=20,19=15,26=6,38=1,40=2/1,3;
 2/9=110,12=2,17=4,18=3,40=1/2;
 3/5=7,8=11,11=2,24=11,25=1,30=1,70=22103,71=1,72=1,74=-13,75=-5,124=41/1,2,3;
 4/11=8,69=2/1;
 5/5=2,6=8,7=200,38=1,53=1/2;
 6/7=3,8=2,9=2,10=2,28=1/1;
 7//1,2,3,16;
 1/18=20,19=15,26=6/3(2);
 2/9=110/2;
 99//99;
 2/9=110/2;
 3/5=7,6=1,8=11,11=2,25=1,30=1,70=22105,71=1,72=1,74=-13,75=-5,82=7,124=41/1,2,3;
 4/5=5,11=8,16=3,69=2/1;
 5/5=2,6=8,7=200,38=1,53=1/2;
 7//1,2,3,16;
 1/18=20,19=15,26=6/3(-5);
 2/9=110/2;
 6/7=3,8=2,9=2,10=2,19=2,28=1/1;
 99/9=1/99;
 Leave Link    1 at Tue Oct 28 16:02:22 2025, MaxMem=  2097152000 cpu:               0.9 elap:               0.1
 (Enter /home/pcmt/gaussian/g16.C.01/g16/l101.exe)
 -----------------------------------
 HClO4.pbe0-d3bj-cosmo.optg-freq.chk
 -----------------------------------
 Symbolic Z-matrix:
 Charge =  0 Multiplicity = 1
 O                     1.4013   -0.0945   -0.4771 
 Cl                    0.09181   0.37014  -0.27411 
 O                    -0.8987   -0.19615  -1.07393 
 O                    -0.08957   0.2202    1.10597 
 O                     0.3443    1.74555  -0.34114 
 H                    -0.42154   2.31392  -0.30885 
 
 ITRead=  0  0  0  0  0  0
 MicOpt= -1 -1 -1 -1 -1 -1
 NAtoms=      6 NQM=        6 NQMF=       0 NMMI=      0 NMMIF=      0
                NMic=       0 NMicF=      0.
                    Isotopes and Nuclear Properties:
 (Nuclear quadrupole moments (NQMom) in fm**2, nuclear magnetic moments (NMagM)
  in nuclear magnetons)

  Atom         1           2           3           4           5           6
 IAtWgt=          16          35          16          16          16           1
 AtmWgt=  15.9949146  34.9688527  15.9949146  15.9949146  15.9949146   1.0078250
 NucSpn=           0           3           0           0           0           1
 AtZEff=  -0.0000000  -0.0000000  -0.0000000  -0.0000000  -0.0000000  -0.0000000
 NQMom=    0.0000000  -8.1650000   0.0000000   0.0000000   0.0000000   0.0000000
 NMagM=    0.0000000   0.8218740   0.0000000   0.0000000   0.0000000   2.7928460
 AtZNuc=   8.0000000  17.0000000   8.0000000   8.0000000   8.0000000   1.0000000
 Leave Link  101 at Tue Oct 28 16:02:22 2025, MaxMem=  2097152000 cpu:               1.6 elap:               0.4
 (Enter /home/pcmt/gaussian/g16.C.01/g16/l103.exe)

 GradGradGradGradGradGradGradGradGradGradGradGradGradGradGradGradGradGrad
 Berny optimization.
 Initialization pass.
                           ----------------------------
                           !    Initial Parameters    !
                           ! (Angstroms and Degrees)  !
 --------------------------                            --------------------------
 ! Name  Definition              Value          Derivative Info.                !
 --------------------------------------------------------------------------------
 ! R1    R(1,2)                  1.4042         estimate D2E/DX2                !
 ! R2    R(2,3)                  1.3934         estimate D2E/DX2                !
 ! R3    R(2,4)                  1.4            estimate D2E/DX2                !
 ! R4    R(2,5)                  1.4            estimate D2E/DX2                !
 ! R5    R(5,6)                  0.9543         estimate D2E/DX2                !
 ! A1    A(1,2,3)              116.4525         estimate D2E/DX2                !
 ! A2    A(1,2,4)              103.1719         estimate D2E/DX2                !
 ! A3    A(1,2,5)               98.6255         estimate D2E/DX2                !
 ! A4    A(3,2,4)              115.4815         estimate D2E/DX2                !
 ! A5    A(3,2,5)              120.0            estimate D2E/DX2                !
 ! A6    A(4,2,5)              100.1241         estimate D2E/DX2                !
 ! A7    A(2,5,6)              116.0268         estimate D2E/DX2                !
 ! D1    D(1,2,5,6)            174.6647         estimate D2E/DX2                !
 ! D2    D(3,2,5,6)             47.2319         estimate D2E/DX2                !
 ! D3    D(4,2,5,6)            -80.1933         estimate D2E/DX2                !
 --------------------------------------------------------------------------------
 Trust Radius=3.00D-01 FncErr=5.00D-06 GrdErr=5.00D-06 EigMax=2.50D+02 EigMin=1.00D-04
 Number of steps in this run=     25 maximum allowed number of steps=    100.
 GradGradGradGradGradGradGradGradGradGradGradGradGradGradGradGradGradGrad

 Leave Link  103 at Tue Oct 28 16:02:23 2025, MaxMem=  2097152000 cpu:               0.1 elap:               0.1
 (Enter /home/pcmt/gaussian/g16.C.01/g16/l202.exe)
                          Input orientation:                          
 ---------------------------------------------------------------------
 Center     Atomic      Atomic             Coordinates (Angstroms)
 Number     Number       Type             X           Y           Z
 ---------------------------------------------------------------------
      1          8           0        1.401296   -0.094501   -0.477100
      2         17           0        0.091812    0.370140   -0.274113
      3          8           0       -0.898704   -0.196151   -1.073934
      4          8           0       -0.089567    0.220195    1.105966
      5          8           0        0.344301    1.745552   -0.341138
      6          1           0       -0.421544    2.313918   -0.308851
 ---------------------------------------------------------------------
                    Distance matrix (angstroms):
                    1          2          3          4          5
     1  O    0.000000
     2  Cl   1.404223   0.000000
     3  O    2.378349   1.393385   0.000000
     4  O    2.197226   1.400000   2.362205   0.000000
     5  O    2.126386   1.400000   2.419145   2.146873   0.000000
     6  H    3.025150   2.010725   2.667111   2.548645   0.954254
                    6
     6  H    0.000000
 Stoichiometry    ClHO4
 Framework group  C1[X(ClHO4)]
 Deg. of freedom    12
 Full point group                 C1      NOp   1
 Largest Abelian subgroup         C1      NOp   1
 Largest concise Abelian subgroup C1      NOp   1
                         Standard orientation:                         
 ---------------------------------------------------------------------
 Center     Atomic      Atomic             Coordinates (Angstroms)
 Number     Number       Type             X           Y           Z
 ---------------------------------------------------------------------
      1          8           0       -0.269016    1.210448   -0.626623
      2         17           0        0.099743    0.006784   -0.004490
      3          8           0        1.427592   -0.388013   -0.154408
      4          8           0       -0.330126    0.185352    1.315861
      5          8           0       -0.931308   -0.805627   -0.491238
      6          1           0       -0.872764   -1.732603   -0.272404
 ---------------------------------------------------------------------
 Rotational constants (GHZ):           6.4916670           5.6908089           5.5889046
 Leave Link  202 at Tue Oct 28 16:02:23 2025, MaxMem=  2097152000 cpu:               0.1 elap:               0.1
 (Enter /home/pcmt/gaussian/g16.C.01/g16/l301.exe)
 General basis read from cards:  (5D, 7F)
 Centers:       2
 Def2TZVP
 ****
 Centers:       1      3      4      5
 Def2TZVP
 ****
 Centers:       6
 Def2TZVP
 ****
 Ernie: Thresh=  0.10000D-02 Tol=  0.10000D-05 Strict=F.
 AO basis set in the form of general basis input (Overlap normalization):
      1 0
 S   6 1.00       0.000000000000
      0.2703238263D+05  0.5722733521D-03
      0.4052387139D+04  0.4435323349D-02
      0.9223272271D+03  0.2302010771D-01
      0.2612407099D+03  0.9282249067D-01
      0.8535464135D+02  0.2937850001D+00
      0.3103503524D+02  0.6740160450D+00
 S   2 1.00       0.000000000000
      0.1226086073D+02  0.6383993703D+00
      0.4998707601D+01  0.3953458713D+00
 S   1 1.00       0.000000000000
      0.1170310816D+01  0.1000000000D+01
 S   1 1.00       0.000000000000
      0.4647474099D+00  0.1000000000D+01
 S   1 1.00       0.000000000000
      0.1850453636D+00  0.1000000000D+01
 P   4 1.00       0.000000000000
      0.6327495480D+02  0.1201833222D-01
      0.1462704938D+02  0.8300542179D-01
      0.4450122346D+01  0.3199174393D+00
      0.1527579965D+01  0.7071554292D+00
 P   1 1.00       0.000000000000
      0.5293511794D+00  0.1000000000D+01
 P   1 1.00       0.000000000000
      0.1747842127D+00  0.1000000000D+01
 D   1 1.00       0.000000000000
      0.2314000000D+01  0.1000000000D+01
 D   1 1.00       0.000000000000
      0.6450000000D+00  0.1000000000D+01
 F   1 1.00       0.000000000000
      0.1428000000D+01  0.1000000000D+01
 ****
      2 0
 S   7 1.00       0.000000000000
      0.6950799094D+05  0.5145738965D-03
      0.1042615688D+05  0.3978134481D-02
      0.2373233406D+04  0.2045617867D-01
      0.6715642007D+03  0.8014810289D-01
      0.2184199979D+03  0.2345477032D+00
      0.7757224971D+02  0.4454336858D+00
      0.2888881528D+02  0.3546684250D+00
 S   3 1.00       0.000000000000
      0.1271052718D+03  0.1129368805D+00
      0.3933958296D+02  0.4837351421D+00
      0.7674067999D+01 -0.1229229739D+01
 S   2 1.00       0.000000000000
      0.3874562763D+01  0.6729682164D+00
      0.1838583257D+01  0.3495605141D+00
 S   1 1.00       0.000000000000
      0.5022905754D+00  0.1000000000D+01
 S   1 1.00       0.000000000000
      0.1796272342D+00  0.1000000000D+01
 P   5 1.00       0.000000000000
      0.6665042328D+03  0.3350250820D-02
      0.1576424169D+03  0.2676397041D-01
      0.5026252098D+02  0.1236268236D+00
      0.1853607811D+02  0.3584578792D+00
      0.7294053278D+01  0.6167729635D+00
 P   1 1.00       0.000000000000
      0.2943324899D+01  0.1000000000D+01
 P   1 1.00       0.000000000000
      0.1040497082D+01  0.1000000000D+01
 P   1 1.00       0.000000000000
      0.3845641508D+00  0.1000000000D+01
 P   1 1.00       0.000000000000
      0.1306964273D+00  0.1000000000D+01
 D   2 1.00       0.000000000000
      0.4610000000D+01  0.1826583505D+00
      0.1011000000D+01  0.9132917523D+00
 D   1 1.00       0.000000000000
      0.3390000000D+00  0.1000000000D+01
 F   1 1.00       0.000000000000
      0.7060000000D+00  0.1000000000D+01
 ****
      3 0
 S   6 1.00       0.000000000000
      0.2703238263D+05  0.5722733521D-03
      0.4052387139D+04  0.4435323349D-02
      0.9223272271D+03  0.2302010771D-01
      0.2612407099D+03  0.9282249067D-01
      0.8535464135D+02  0.2937850001D+00
      0.3103503524D+02  0.6740160450D+00
 S   2 1.00       0.000000000000
      0.1226086073D+02  0.6383993703D+00
      0.4998707601D+01  0.3953458713D+00
 S   1 1.00       0.000000000000
      0.1170310816D+01  0.1000000000D+01
 S   1 1.00       0.000000000000
      0.4647474099D+00  0.1000000000D+01
 S   1 1.00       0.000000000000
      0.1850453636D+00  0.1000000000D+01
 P   4 1.00       0.000000000000
      0.6327495480D+02  0.1201833222D-01
      0.1462704938D+02  0.8300542179D-01
      0.4450122346D+01  0.3199174393D+00
      0.1527579965D+01  0.7071554292D+00
 P   1 1.00       0.000000000000
      0.5293511794D+00  0.1000000000D+01
 P   1 1.00       0.000000000000
      0.1747842127D+00  0.1000000000D+01
 D   1 1.00       0.000000000000
      0.2314000000D+01  0.1000000000D+01
 D   1 1.00       0.000000000000
      0.6450000000D+00  0.1000000000D+01
 F   1 1.00       0.000000000000
      0.1428000000D+01  0.1000000000D+01
 ****
      4 0
 S   6 1.00       0.000000000000
      0.2703238263D+05  0.5722733521D-03
      0.4052387139D+04  0.4435323349D-02
      0.9223272271D+03  0.2302010771D-01
      0.2612407099D+03  0.9282249067D-01
      0.8535464135D+02  0.2937850001D+00
      0.3103503524D+02  0.6740160450D+00
 S   2 1.00       0.000000000000
      0.1226086073D+02  0.6383993703D+00
      0.4998707601D+01  0.3953458713D+00
 S   1 1.00       0.000000000000
      0.1170310816D+01  0.1000000000D+01
 S   1 1.00       0.000000000000
      0.4647474099D+00  0.1000000000D+01
 S   1 1.00       0.000000000000
      0.1850453636D+00  0.1000000000D+01
 P   4 1.00       0.000000000000
      0.6327495480D+02  0.1201833222D-01
      0.1462704938D+02  0.8300542179D-01
      0.4450122346D+01  0.3199174393D+00
      0.1527579965D+01  0.7071554292D+00
 P   1 1.00       0.000000000000
      0.5293511794D+00  0.1000000000D+01
 P   1 1.00       0.000000000000
      0.1747842127D+00  0.1000000000D+01
 D   1 1.00       0.000000000000
      0.2314000000D+01  0.1000000000D+01
 D   1 1.00       0.000000000000
      0.6450000000D+00  0.1000000000D+01
 F   1 1.00       0.000000000000
      0.1428000000D+01  0.1000000000D+01
 ****
      5 0
 S   6 1.00       0.000000000000
      0.2703238263D+05  0.5722733521D-03
      0.4052387139D+04  0.4435323349D-02
      0.9223272271D+03  0.2302010771D-01
      0.2612407099D+03  0.9282249067D-01
      0.8535464135D+02  0.2937850001D+00
      0.3103503524D+02  0.6740160450D+00
 S   2 1.00       0.000000000000
      0.1226086073D+02  0.6383993703D+00
      0.4998707601D+01  0.3953458713D+00
 S   1 1.00       0.000000000000
      0.1170310816D+01  0.1000000000D+01
 S   1 1.00       0.000000000000
      0.4647474099D+00  0.1000000000D+01
 S   1 1.00       0.000000000000
      0.1850453636D+00  0.1000000000D+01
 P   4 1.00       0.000000000000
      0.6327495480D+02  0.1201833222D-01
      0.1462704938D+02  0.8300542179D-01
      0.4450122346D+01  0.3199174393D+00
      0.1527579965D+01  0.7071554292D+00
 P   1 1.00       0.000000000000
      0.5293511794D+00  0.1000000000D+01
 P   1 1.00       0.000000000000
      0.1747842127D+00  0.1000000000D+01
 D   1 1.00       0.000000000000
      0.2314000000D+01  0.1000000000D+01
 D   1 1.00       0.000000000000
      0.6450000000D+00  0.1000000000D+01
 F   1 1.00       0.000000000000
      0.1428000000D+01  0.1000000000D+01
 ****
      6 0
 S   3 1.00       0.000000000000
      0.3406134100D+02  0.2543930721D-01
      0.5123574600D+01  0.1900859489D+00
      0.1164662600D+01  0.8524411301D+00
 S   1 1.00       0.000000000000
      0.3272304100D+00  0.1000000000D+01
 S   1 1.00       0.000000000000
      0.1030724100D+00  0.1000000000D+01
 P   1 1.00       0.000000000000
      0.8000000000D+00  0.1000000000D+01
 ****

 ***********************************************************************************************************************************
 *             ATOMIC CENTER             *        ATOMIC ORBITAL       *                     GAUSSIAN FUNCTIONS                    *
 ***********************************************************************************************************************************
 *                                       * FUNCTION    SHELL    SCALE  *                                                           *
 *    ATOM   X-COORD  Y-COORD  Z-COORD   *  NUMBER     TYPE     FACTOR *  EXPONENT    S-COEF      P-COEF      D-COEF      F-COEF   *
 ***********************************************************************************************************************************
 *     O     -0.50837  2.28742 -1.18415                                                                                            *
+                                                1   S           1.00                                                               
+                                                                      0.270324D+050.859858D+000.000000D+000.000000D+000.000000D+00 
 *                                                                     0.405239D+040.160553D+010.000000D+000.000000D+000.000000D+00*
 *                                                                     0.922327D+030.274588D+010.000000D+000.000000D+000.000000D+00*
 *                                                                     0.261241D+030.429877D+010.000000D+000.000000D+000.000000D+00*
 *                                                                     0.853546D+020.587977D+010.000000D+000.000000D+000.000000D+00*
 *                                                                     0.310350D+020.631640D+010.000000D+000.000000D+000.000000D+00*
 *                                               2   S           1.00                                                              *
+                                                                      0.122609D+020.298121D+010.000000D+000.000000D+000.000000D+00 
 *                                                                     0.499871D+010.941956D+000.000000D+000.000000D+000.000000D+00*
 *                                               3   S           1.00                                                              *
+                                                                      0.117031D+010.801929D+000.000000D+000.000000D+000.000000D+00 
 *                                               4   S           1.00                                                              *
+                                                                      0.464747D+000.401165D+000.000000D+000.000000D+000.000000D+00 
 *                                               5   S           1.00                                                              *
+                                                                      0.185045D+000.201080D+000.000000D+000.000000D+000.000000D+00 
 *                                           6-  8   P           1.00                                                              *
+                                                                      0.632750D+020.000000D+000.305720D+010.000000D+000.000000D+00 
 *                                                                     0.146270D+020.000000D+000.338448D+010.000000D+000.000000D+00*
 *                                                                     0.445012D+010.000000D+000.294743D+010.000000D+000.000000D+00*
 *                                                                     0.152758D+010.000000D+000.171183D+010.000000D+000.000000D+00*
 *                                           9- 11   P           1.00                                                              *
+                                                                      0.529351D+000.000000D+000.643606D+000.000000D+000.000000D+00 
 *                                          12- 14   P           1.00                                                              *
+                                                                      0.174784D+000.000000D+000.161090D+000.000000D+000.000000D+00 
 *                                          15- 19   D           1.00                                                              *
+                                                                      0.231400D+010.000000D+000.000000D+000.714571D+010.000000D+00 
 *                                          20- 24   D           1.00                                                              *
+                                                                      0.645000D+000.000000D+000.000000D+000.764080D+000.000000D+00 
 *                                          19- 31   F           1.00                                                              *
+                                                                      0.142800D+010.000000D+000.000000D+000.000000D+000.328165D+01 
 *---------------------------------------------------------------------------------------------------------------------------------*
 *     Cl     0.18849  0.01282 -0.00848                                                                                            *
+                                               32   S           1.00                                                               
+                                                                      0.695080D+050.156994D+010.000000D+000.000000D+000.000000D+00 
 *                                                                     0.104262D+050.292538D+010.000000D+000.000000D+000.000000D+00*
 *                                                                     0.237323D+040.495724D+010.000000D+000.000000D+000.000000D+00*
 *                                                                     0.671564D+030.753562D+010.000000D+000.000000D+000.000000D+00*
 *                                                                     0.218420D+030.949753D+010.000000D+000.000000D+000.000000D+00*
 *                                                                     0.775722D+020.829799D+010.000000D+000.000000D+000.000000D+00*
 *                                                                     0.288888D+020.314978D+010.000000D+000.000000D+000.000000D+00*
 *                                              33   S           1.00                                                              *
+                                                                      0.127105D+030.304697D+010.000000D+000.000000D+000.000000D+00 
 *                                                                     0.393396D+020.541552D+010.000000D+000.000000D+000.000000D+00*
 *                                                                     0.767407D+01-.403936D+010.000000D+000.000000D+000.000000D+00*
 *                                              34   S           1.00                                                              *
+                                                                      0.387456D+010.132456D+010.000000D+000.000000D+000.000000D+00 
 *                                                                     0.183858D+010.393364D+000.000000D+000.000000D+000.000000D+00*
 *                                              35   S           1.00                                                              *
+                                                                      0.502291D+000.425232D+000.000000D+000.000000D+000.000000D+00 
 *                                              36   S           1.00                                                              *
+                                                                      0.179627D+000.196648D+000.000000D+000.000000D+000.000000D+00 
 *                                          37- 39   P           1.00                                                              *
+                                                                      0.666504D+030.000000D+000.161723D+020.000000D+000.000000D+00 
 *                                                                     0.157642D+030.000000D+000.213099D+020.000000D+000.000000D+00*
 *                                                                     0.502625D+020.000000D+000.235835D+020.000000D+000.000000D+00*
 *                                                                     0.185361D+020.000000D+000.196517D+020.000000D+000.000000D+00*
 *                                                                     0.729405D+010.000000D+000.105384D+020.000000D+000.000000D+00*
 *                                          40- 42   P           1.00                                                              *
+                                                                      0.294332D+010.000000D+000.549525D+010.000000D+000.000000D+00 
 *                                          43- 45   P           1.00                                                              *
+                                                                      0.104050D+010.000000D+000.149793D+010.000000D+000.000000D+00 
 *                                          46- 48   P           1.00                                                              *
+                                                                      0.384564D+000.000000D+000.431669D+000.000000D+000.000000D+00 
 *                                          49- 51   P           1.00                                                              *
+                                                                      0.130696D+000.000000D+000.112013D+000.000000D+000.000000D+00 
 *                                          52- 56   D           1.00                                                              *
+                                                                      0.461000D+010.000000D+000.000000D+000.436039D+010.000000D+00 
 *                                                                     0.101100D+010.000000D+000.000000D+000.153226D+010.000000D+00*
 *                                          57- 61   D           1.00                                                              *
+                                                                      0.339000D+000.000000D+000.000000D+000.247890D+000.000000D+00 
 *                                          56- 68   F           1.00                                                              *
+                                                                      0.706000D+000.000000D+000.000000D+000.000000D+000.672613D+00 
 *---------------------------------------------------------------------------------------------------------------------------------*
 *     O      2.69776 -0.73324 -0.29179                                                                                            *
+                                               69   S           1.00                                                               
+                                                                      0.270324D+050.859858D+000.000000D+000.000000D+000.000000D+00 
 *                                                                     0.405239D+040.160553D+010.000000D+000.000000D+000.000000D+00*
 *                                                                     0.922327D+030.274588D+010.000000D+000.000000D+000.000000D+00*
 *                                                                     0.261241D+030.429877D+010.000000D+000.000000D+000.000000D+00*
 *                                                                     0.853546D+020.587977D+010.000000D+000.000000D+000.000000D+00*
 *                                                                     0.310350D+020.631640D+010.000000D+000.000000D+000.000000D+00*
 *                                              70   S           1.00                                                              *
+                                                                      0.122609D+020.298121D+010.000000D+000.000000D+000.000000D+00 
 *                                                                     0.499871D+010.941956D+000.000000D+000.000000D+000.000000D+00*
 *                                              71   S           1.00                                                              *
+                                                                      0.117031D+010.801929D+000.000000D+000.000000D+000.000000D+00 
 *                                              72   S           1.00                                                              *
+                                                                      0.464747D+000.401165D+000.000000D+000.000000D+000.000000D+00 
 *                                              73   S           1.00                                                              *
+                                                                      0.185045D+000.201080D+000.000000D+000.000000D+000.000000D+00 
 *                                          74- 76   P           1.00                                                              *
+                                                                      0.632750D+020.000000D+000.305720D+010.000000D+000.000000D+00 
 *                                                                     0.146270D+020.000000D+000.338448D+010.000000D+000.000000D+00*
 *                                                                     0.445012D+010.000000D+000.294743D+010.000000D+000.000000D+00*
 *                                                                     0.152758D+010.000000D+000.171183D+010.000000D+000.000000D+00*
 *                                          77- 79   P           1.00                                                              *
+                                                                      0.529351D+000.000000D+000.643606D+000.000000D+000.000000D+00 
 *                                          80- 82   P           1.00                                                              *
+                                                                      0.174784D+000.000000D+000.161090D+000.000000D+000.000000D+00 
 *                                          83- 87   D           1.00                                                              *
+                                                                      0.231400D+010.000000D+000.000000D+000.714571D+010.000000D+00 
 *                                          88- 92   D           1.00                                                              *
+                                                                      0.645000D+000.000000D+000.000000D+000.764080D+000.000000D+00 
 *                                          87- 99   F           1.00                                                              *
+                                                                      0.142800D+010.000000D+000.000000D+000.000000D+000.328165D+01 
 *---------------------------------------------------------------------------------------------------------------------------------*
 *     O     -0.62385  0.35026  2.48662                                                                                            *
+                                              100   S           1.00                                                               
+                                                                      0.270324D+050.859858D+000.000000D+000.000000D+000.000000D+00 
 *                                                                     0.405239D+040.160553D+010.000000D+000.000000D+000.000000D+00*
 *                                                                     0.922327D+030.274588D+010.000000D+000.000000D+000.000000D+00*
 *                                                                     0.261241D+030.429877D+010.000000D+000.000000D+000.000000D+00*
 *                                                                     0.853546D+020.587977D+010.000000D+000.000000D+000.000000D+00*
 *                                                                     0.310350D+020.631640D+010.000000D+000.000000D+000.000000D+00*
 *                                             101   S           1.00                                                              *
+                                                                      0.122609D+020.298121D+010.000000D+000.000000D+000.000000D+00 
 *                                                                     0.499871D+010.941956D+000.000000D+000.000000D+000.000000D+00*
 *                                             102   S           1.00                                                              *
+                                                                      0.117031D+010.801929D+000.000000D+000.000000D+000.000000D+00 
 *                                             103   S           1.00                                                              *
+                                                                      0.464747D+000.401165D+000.000000D+000.000000D+000.000000D+00 
 *                                             104   S           1.00                                                              *
+                                                                      0.185045D+000.201080D+000.000000D+000.000000D+000.000000D+00 
 *                                         105-107   P           1.00                                                              *
+                                                                      0.632750D+020.000000D+000.305720D+010.000000D+000.000000D+00 
 *                                                                     0.146270D+020.000000D+000.338448D+010.000000D+000.000000D+00*
 *                                                                     0.445012D+010.000000D+000.294743D+010.000000D+000.000000D+00*
 *                                                                     0.152758D+010.000000D+000.171183D+010.000000D+000.000000D+00*
 *                                         108-110   P           1.00                                                              *
+                                                                      0.529351D+000.000000D+000.643606D+000.000000D+000.000000D+00 
 *                                         111-113   P           1.00                                                              *
+                                                                      0.174784D+000.000000D+000.161090D+000.000000D+000.000000D+00 
 *                                         114-118   D           1.00                                                              *
+                                                                      0.231400D+010.000000D+000.000000D+000.714571D+010.000000D+00 
 *                                         119-123   D           1.00                                                              *
+                                                                      0.645000D+000.000000D+000.000000D+000.764080D+000.000000D+00 
 *                                         118-130   F           1.00                                                              *
+                                                                      0.142800D+010.000000D+000.000000D+000.000000D+000.328165D+01 
 *---------------------------------------------------------------------------------------------------------------------------------*
 *     O     -1.75992 -1.52241 -0.92831                                                                                            *
+                                              131   S           1.00                                                               
+                                                                      0.270324D+050.859858D+000.000000D+000.000000D+000.000000D+00 
 *                                                                     0.405239D+040.160553D+010.000000D+000.000000D+000.000000D+00*
 *                                                                     0.922327D+030.274588D+010.000000D+000.000000D+000.000000D+00*
 *                                                                     0.261241D+030.429877D+010.000000D+000.000000D+000.000000D+00*
 *                                                                     0.853546D+020.587977D+010.000000D+000.000000D+000.000000D+00*
 *                                                                     0.310350D+020.631640D+010.000000D+000.000000D+000.000000D+00*
 *                                             132   S           1.00                                                              *
+                                                                      0.122609D+020.298121D+010.000000D+000.000000D+000.000000D+00 
 *                                                                     0.499871D+010.941956D+000.000000D+000.000000D+000.000000D+00*
 *                                             133   S           1.00                                                              *
+                                                                      0.117031D+010.801929D+000.000000D+000.000000D+000.000000D+00 
 *                                             134   S           1.00                                                              *
+                                                                      0.464747D+000.401165D+000.000000D+000.000000D+000.000000D+00 
 *                                             135   S           1.00                                                              *
+                                                                      0.185045D+000.201080D+000.000000D+000.000000D+000.000000D+00 
 *                                         136-138   P           1.00                                                              *
+                                                                      0.632750D+020.000000D+000.305720D+010.000000D+000.000000D+00 
 *                                                                     0.146270D+020.000000D+000.338448D+010.000000D+000.000000D+00*
 *                                                                     0.445012D+010.000000D+000.294743D+010.000000D+000.000000D+00*
 *                                                                     0.152758D+010.000000D+000.171183D+010.000000D+000.000000D+00*
 *                                         139-141   P           1.00                                                              *
+                                                                      0.529351D+000.000000D+000.643606D+000.000000D+000.000000D+00 
 *                                         142-144   P           1.00                                                              *
+                                                                      0.174784D+000.000000D+000.161090D+000.000000D+000.000000D+00 
 *                                         145-149   D           1.00                                                              *
+                                                                      0.231400D+010.000000D+000.000000D+000.714571D+010.000000D+00 
 *                                         150-154   D           1.00                                                              *
+                                                                      0.645000D+000.000000D+000.000000D+000.764080D+000.000000D+00 
 *                                         149-161   F           1.00                                                              *
+                                                                      0.142800D+010.000000D+000.000000D+000.000000D+000.328165D+01 
 *---------------------------------------------------------------------------------------------------------------------------------*
 *     H     -1.64928 -3.27415 -0.51477                                                                                            *
+                                              162   S           1.00                                                               
+                                                                      0.340613D+020.255630D+000.000000D+000.000000D+000.000000D+00 
 *                                                                     0.512357D+010.461360D+000.000000D+000.000000D+000.000000D+00*
 *                                                                     0.116466D+010.681121D+000.000000D+000.000000D+000.000000D+00*
 *                                             163   S           1.00                                                              *
+                                                                      0.327230D+000.308355D+000.000000D+000.000000D+000.000000D+00 
 *                                             164   S           1.00                                                              *
+                                                                      0.103072D+000.129648D+000.000000D+000.000000D+000.000000D+00 
 *                                         165-167   P           1.00                                                              *
+                                                                      0.800000D+000.000000D+000.107846D+010.000000D+000.000000D+00 
 ***********************************************************************************************************************************
 There are   192 symmetry adapted cartesian basis functions of A   symmetry.
 There are   167 symmetry adapted basis functions of A   symmetry.
   167 basis functions,   281 primitive gaussians,   192 cartesian basis functions
    25 alpha electrons       25 beta electrons
       nuclear repulsion energy       308.9634714851 Hartrees.
 IExCor= 1009 DFT=T Ex+Corr=PBE1PBE ExCW=0 ScaHFX=  0.250000
 ScaDFX=  0.750000  0.750000  1.000000  1.000000 ScalE2=  1.000000  1.000000
 IRadAn=      5 IRanWt=     -1 IRanGd=            0 ICorTp=0 IEmpDi=141
 NAtoms=    6 NActive=    6 NUniq=    6 SFac= 1.00D+00 NAtFMM=   60 NAOKFM=F Big=F
 Integral buffers will be    131072 words long.
 Raffenetti 2 integral format.
 Two-electron integral symmetry is turned on.
 R6Disp:  Grimme-D3(BJ) Dispersion energy=       -0.0035287165 Hartrees.
 Nuclear repulsion after empirical dispersion term =      308.9599427685 Hartrees.
 Using the following non-standard input for PCM:
 Radii=Klamt
 --- end of non-standard input.
 ------------------------------------------------------------------------------
 Polarizable Continuum Model (PCM)
 =================================
 Model                : C-PCM.
 Atomic radii         : Klamt.
 Polarization charges : Total charges.
 Charge compensation  : None.
 Solution method      : On-the-fly selection.
 Cavity type          : Scaled VdW (van der Waals Surface) (Alpha=1.100).
 Cavity algorithm     : GePol (No added spheres)
                        Default sphere list used, NSphG=    6.
                        Lebedev-Laikov grids with approx.  5.0 points / Ang**2.
                        Smoothing algorithm: York/Karplus (Gamma=1.0000).
                        Polarization charges: spherical gaussians, with
                                              point-specific exponents (IZeta= 3).
                        Self-potential: point-specific (ISelfS= 7).
                        Self-field    : sphere-specific E.n sum rule (ISelfD= 2).
 1st derivatives      : Analytical E(r).r(x)/FMM algorithm (CHGder, D1EAlg=3).
                        Cavity 1st derivative terms included.
 Solvent              : Water, Eps=  78.355300 Eps(inf)=   1.777849
 ------------------------------------------------------------------------------
 Spheres list:
 ISph  on   Nord     Re0    Alpha      Xe            Ye            Ze
    1   O      1    1.7200  1.000     -0.269016      1.210448     -0.626623
    2  Cl      2    2.0500  1.000      0.099743      0.006784     -0.004490
    3   O      3    1.7200  1.000      1.427592     -0.388013     -0.154408
    4   O      4    1.7200  1.000     -0.330126      0.185352      1.315861
    5   O      5    1.7200  1.000     -0.931308     -0.805627     -0.491238
    6   H      6    1.3000  1.000     -0.872764     -1.732603     -0.272404
 ------------------------------------------------------------------------------
 GePol: Number of generator spheres                  =       6
 GePol: Total number of spheres                      =       6
 GePol: Number of exposed spheres                    =       6 (100.00%)
 GePol: Number of points                             =     596
 GePol: Average weight of points                     =       0.16
 GePol: Minimum weight of points                     =   0.22D-10
 GePol: Maximum weight of points                     =    0.21253
 GePol: Number of points with low weight             =      23
 GePol: Fraction of low-weight points (<1% of avg)   =       3.86%
 GePol: Cavity surface area                          =     93.007 Ang**2
 GePol: Cavity volume                                =     71.674 Ang**3
 Leave Link  301 at Tue Oct 28 16:02:23 2025, MaxMem=  2097152000 cpu:               0.5 elap:               0.1
 (Enter /home/pcmt/gaussian/g16.C.01/g16/l302.exe)
 NPDir=0 NMtPBC=     1 NCelOv=     1 NCel=       1 NClECP=     1 NCelD=      1
         NCelK=      1 NCelE2=     1 NClLst=     1 CellRange=     0.0.
 One-electron integrals computed using PRISM.
 One-electron integral symmetry used in STVInt
 NBasis=   167 RedAO= T EigKep=  1.34D-03  NBF=   167
 NBsUse=   167 1.00D-06 EigRej= -1.00D+00 NBFU=   167
 Precomputing XC quadrature grid using
 IXCGrd= 4 IRadAn=           5 IRanWt=          -1 IRanGd=           0 AccXCQ= 0.00D+00.
 Generated NRdTot=       0 NPtTot=           0 NUsed=           0 NTot=          32
 NSgBfM=   191   191   191   191   191 MxSgAt=     6 MxSgA2=     6.
 Leave Link  302 at Tue Oct 28 16:02:23 2025, MaxMem=  2097152000 cpu:               1.4 elap:               0.2
 (Enter /home/pcmt/gaussian/g16.C.01/g16/l303.exe)
 DipDrv:  MaxL=1.
 Leave Link  303 at Tue Oct 28 16:02:23 2025, MaxMem=  2097152000 cpu:               0.2 elap:               0.1
 (Enter /home/pcmt/gaussian/g16.C.01/g16/l401.exe)
 ExpMin= 1.03D-01 ExpMax= 6.95D+04 ExpMxC= 2.37D+03 IAcc=3 IRadAn=         5 AccDes= 0.00D+00
 Harris functional with IExCor= 1009 and IRadAn=       5 diagonalized for initial guess.
 HarFok:  IExCor= 1009 AccDes= 0.00D+00 IRadAn=         5 IDoV= 1 UseB2=F ITyADJ=14
 ICtDFT=  3500011 ScaDFX=  1.000000  1.000000  1.000000  1.000000
 FoFCou: FMM=F IPFlag=           0 FMFlag=      100000 FMFlg1=           0
         NFxFlg=           0 DoJE=T BraDBF=F KetDBF=T FulRan=T
         wScrn=  0.000000 ICntrl=       500 IOpCl=  0 I1Cent=   200000004 NGrid=           0
         NMat0=    1 NMatS0=      1 NMatT0=    0 NMatD0=    1 NMtDS0=    0 NMtDT0=    0
 Petite list used in FoFCou.
 Harris En= -761.130475255434    
 JPrj=0 DoOrth=F DoCkMO=F.
 Leave Link  401 at Tue Oct 28 16:02:24 2025, MaxMem=  2097152000 cpu:               5.7 elap:               0.8
 (Enter /home/pcmt/gaussian/g16.C.01/g16/l502.exe)
 Keep R1 ints in memory in canonical form, NReq=106575332.
 FoFCou: FMM=F IPFlag=           0 FMFlag=           0 FMFlg1=           0
         NFxFlg=           0 DoJE=F BraDBF=F KetDBF=F FulRan=T
         wScrn=  0.000000 ICntrl=       600 IOpCl=  0 I1Cent=           0 NGrid=           0
         NMat0=    1 NMatS0=  14028 NMatT0=    0 NMatD0=    1 NMtDS0=    0 NMtDT0=    0
 Symmetry not used in FoFCou.
 Two-electron integral symmetry not used.
 Closed shell SCF:
 Using DIIS extrapolation, IDIIS=  1040.
 NGot=  2097152000 LenX=  1998675460 LenY=  1998638155
 Requested convergence on RMS density matrix=1.00D-08 within 200 cycles.
 Requested convergence on MAX density matrix=1.00D-06.
 Requested convergence on             energy=1.00D-06.
 No special actions if energy rises.

 Cycle   1  Pass 1  IDiag  1:
 Inv3:  Mode=1 IEnd=     1065648.
 Iteration    1 A*A^-1 deviation from unit magnitude is 3.77D-15 for    114.
 Iteration    1 A*A^-1 deviation from orthogonality  is 1.60D-15 for    532    282.
 Iteration    1 A^-1*A deviation from unit magnitude is 3.33D-15 for     83.
 Iteration    1 A^-1*A deviation from orthogonality  is 1.33D-15 for    518     97.
 E= -760.725182383747    
 DIIS: error= 4.34D-02 at cycle   1 NSaved=   1.
 NSaved= 1 IEnMin= 1 EnMin= -760.725182383747     IErMin= 1 ErrMin= 4.34D-02
 ErrMax= 4.34D-02  0.00D+00 EMaxC= 1.00D-01 BMatC= 6.03D-01 BMatP= 6.03D-01
 IDIUse=3 WtCom= 5.66D-01 WtEn= 4.34D-01
 Coeff-Com:  0.100D+01
 Coeff-En:   0.100D+01
 Coeff:      0.100D+01
 Gap=     0.275 Goal=   None    Shift=    0.000
 GapD=    0.275 DampG=1.000 DampE=0.500 DampFc=0.5000 IDamp=-1.
 Damping current iteration by 5.00D-01
 RMSDP=5.97D-03 MaxDP=4.31D-01              OVMax= 2.42D-01

 Cycle   2  Pass 1  IDiag  1:
 E= -760.767853180753     Delta-E=       -0.042670797005 Rises=F Damp=T
 DIIS: error= 1.64D-02 at cycle   2 NSaved=   2.
 NSaved= 2 IEnMin= 2 EnMin= -760.767853180753     IErMin= 2 ErrMin= 1.64D-02
 ErrMax= 1.64D-02  0.00D+00 EMaxC= 1.00D-01 BMatC= 9.02D-02 BMatP= 6.03D-01
 IDIUse=3 WtCom= 8.36D-01 WtEn= 1.64D-01
 Coeff-Com:  0.246D+00 0.754D+00
 Coeff-En:   0.447D+00 0.553D+00
 Coeff:      0.279D+00 0.721D+00
 Gap=     0.360 Goal=   None    Shift=    0.000
 RMSDP=1.21D-03 MaxDP=8.41D-02 DE=-4.27D-02 OVMax= 1.70D-01

 Cycle   3  Pass 1  IDiag  1:
 E= -761.056214172462     Delta-E=       -0.288360991709 Rises=F Damp=F
 DIIS: error= 5.41D-03 at cycle   3 NSaved=   3.
 NSaved= 3 IEnMin= 3 EnMin= -761.056214172462     IErMin= 3 ErrMin= 5.41D-03
 ErrMax= 5.41D-03  0.00D+00 EMaxC= 1.00D-01 BMatC= 7.93D-03 BMatP= 9.02D-02
 IDIUse=3 WtCom= 9.46D-01 WtEn= 5.41D-02
 Coeff-Com:  0.532D-01 0.231D+00 0.716D+00
 Coeff-En:   0.000D+00 0.000D+00 0.100D+01
 Coeff:      0.504D-01 0.218D+00 0.731D+00
 Gap=     0.356 Goal=   None    Shift=    0.000
 RMSDP=4.48D-04 MaxDP=1.55D-02 DE=-2.88D-01 OVMax= 2.08D-02

 Cycle   4  Pass 1  IDiag  1:
 E= -761.059007884503     Delta-E=       -0.002793712042 Rises=F Damp=F
 DIIS: error= 3.96D-03 at cycle   4 NSaved=   4.
 NSaved= 4 IEnMin= 4 EnMin= -761.059007884503     IErMin= 4 ErrMin= 3.96D-03
 ErrMax= 3.96D-03  0.00D+00 EMaxC= 1.00D-01 BMatC= 3.92D-03 BMatP= 7.93D-03
 IDIUse=3 WtCom= 9.60D-01 WtEn= 3.96D-02
 Coeff-Com: -0.188D-02 0.452D-01 0.420D+00 0.537D+00
 Coeff-En:   0.000D+00 0.000D+00 0.329D+00 0.671D+00
 Coeff:     -0.181D-02 0.434D-01 0.417D+00 0.542D+00
 Gap=     0.363 Goal=   None    Shift=    0.000
 RMSDP=1.97D-04 MaxDP=7.13D-03 DE=-2.79D-03 OVMax= 8.89D-03

 Cycle   5  Pass 1  IDiag  1:
 E= -761.061413723612     Delta-E=       -0.002405839108 Rises=F Damp=F
 DIIS: error= 5.01D-04 at cycle   5 NSaved=   5.
 NSaved= 5 IEnMin= 5 EnMin= -761.061413723612     IErMin= 5 ErrMin= 5.01D-04
 ErrMax= 5.01D-04  0.00D+00 EMaxC= 1.00D-01 BMatC= 7.49D-05 BMatP= 3.92D-03
 IDIUse=3 WtCom= 9.95D-01 WtEn= 5.01D-03
 Coeff-Com: -0.208D-02 0.775D-02 0.127D+00 0.209D+00 0.658D+00
 Coeff-En:   0.000D+00 0.000D+00 0.000D+00 0.000D+00 0.100D+01
 Coeff:     -0.206D-02 0.771D-02 0.126D+00 0.208D+00 0.660D+00
 Gap=     0.361 Goal=   None    Shift=    0.000
 RMSDP=4.54D-05 MaxDP=1.75D-03 DE=-2.41D-03 OVMax= 1.82D-03

 Cycle   6  Pass 1  IDiag  1:
 E= -761.061459080353     Delta-E=       -0.000045356741 Rises=F Damp=F
 DIIS: error= 1.89D-04 at cycle   6 NSaved=   6.
 NSaved= 6 IEnMin= 6 EnMin= -761.061459080353     IErMin= 6 ErrMin= 1.89D-04
 ErrMax= 1.89D-04  0.00D+00 EMaxC= 1.00D-01 BMatC= 1.36D-05 BMatP= 7.49D-05
 IDIUse=3 WtCom= 9.98D-01 WtEn= 1.89D-03
 Coeff-Com: -0.887D-03 0.206D-03 0.277D-01 0.587D-01 0.349D+00 0.566D+00
 Coeff-En:   0.000D+00 0.000D+00 0.000D+00 0.000D+00 0.881D-01 0.912D+00
 Coeff:     -0.885D-03 0.205D-03 0.277D-01 0.586D-01 0.348D+00 0.566D+00
 Gap=     0.361 Goal=   None    Shift=    0.000
 RMSDP=1.60D-05 MaxDP=3.70D-04 DE=-4.54D-05 OVMax= 8.50D-04

 Cycle   7  Pass 1  IDiag  1:
 E= -761.061466785490     Delta-E=       -0.000007705138 Rises=F Damp=F
 DIIS: error= 1.09D-04 at cycle   7 NSaved=   7.
 NSaved= 7 IEnMin= 7 EnMin= -761.061466785490     IErMin= 7 ErrMin= 1.09D-04
 ErrMax= 1.09D-04  0.00D+00 EMaxC= 1.00D-01 BMatC= 2.24D-06 BMatP= 1.36D-05
 IDIUse=3 WtCom= 9.99D-01 WtEn= 1.09D-03
 Coeff-Com: -0.425D-03-0.674D-03 0.493D-02 0.166D-01 0.161D+00 0.352D+00
 Coeff-Com:  0.467D+00
 Coeff-En:   0.000D+00 0.000D+00 0.000D+00 0.000D+00 0.000D+00 0.985D-01
 Coeff-En:   0.901D+00
 Coeff:     -0.425D-03-0.673D-03 0.492D-02 0.165D-01 0.160D+00 0.352D+00
 Coeff:      0.467D+00
 Gap=     0.361 Goal=   None    Shift=    0.000
 RMSDP=5.20D-06 MaxDP=1.68D-04 DE=-7.71D-06 OVMax= 2.97D-04

 Cycle   8  Pass 1  IDiag  1:
 E= -761.061468322546     Delta-E=       -0.000001537056 Rises=F Damp=F
 DIIS: error= 7.96D-06 at cycle   8 NSaved=   8.
 NSaved= 8 IEnMin= 8 EnMin= -761.061468322546     IErMin= 8 ErrMin= 7.96D-06
 ErrMax= 7.96D-06  0.00D+00 EMaxC= 1.00D-01 BMatC= 1.86D-08 BMatP= 2.24D-06
 IDIUse=1 WtCom= 1.00D+00 WtEn= 0.00D+00
 Coeff-Com: -0.378D-04 0.220D-04-0.179D-02-0.239D-02-0.378D-03 0.208D-02
 Coeff-Com:  0.546D-01 0.948D+00
 Coeff:     -0.378D-04 0.220D-04-0.179D-02-0.239D-02-0.378D-03 0.208D-02
 Coeff:      0.546D-01 0.948D+00
 Gap=     0.361 Goal=   None    Shift=    0.000
 RMSDP=6.21D-07 MaxDP=2.46D-05 DE=-1.54D-06 OVMax= 3.49D-05

 Cycle   9  Pass 1  IDiag  1:
 E= -761.061468335934     Delta-E=       -0.000000013388 Rises=F Damp=F
 DIIS: error= 1.05D-06 at cycle   9 NSaved=   9.
 NSaved= 9 IEnMin= 9 EnMin= -761.061468335934     IErMin= 9 ErrMin= 1.05D-06
 ErrMax= 1.05D-06  0.00D+00 EMaxC= 1.00D-01 BMatC= 5.42D-10 BMatP= 1.86D-08
 IDIUse=1 WtCom= 1.00D+00 WtEn= 0.00D+00
 Coeff-Com: -0.773D-05 0.234D-04-0.603D-03-0.913D-03-0.333D-02-0.546D-02
 Coeff-Com:  0.498D-02 0.248D+00 0.758D+00
 Coeff:     -0.773D-05 0.234D-04-0.603D-03-0.913D-03-0.333D-02-0.546D-02
 Coeff:      0.498D-02 0.248D+00 0.758D+00
 Gap=     0.361 Goal=   None    Shift=    0.000
 RMSDP=1.07D-07 MaxDP=3.17D-06 DE=-1.34D-08 OVMax= 5.10D-06

 Cycle  10  Pass 1  IDiag  1:
 E= -761.061468336274     Delta-E=       -0.000000000340 Rises=F Damp=F
 DIIS: error= 6.19D-07 at cycle  10 NSaved=  10.
 NSaved=10 IEnMin=10 EnMin= -761.061468336274     IErMin=10 ErrMin= 6.19D-07
 ErrMax= 6.19D-07  0.00D+00 EMaxC= 1.00D-01 BMatC= 9.58D-11 BMatP= 5.42D-10
 IDIUse=1 WtCom= 1.00D+00 WtEn= 0.00D+00
 Coeff-Com: -0.247D-05 0.939D-05-0.187D-03-0.284D-03-0.149D-02-0.220D-02
 Coeff-Com: -0.523D-03 0.602D-01 0.336D+00 0.608D+00
 Coeff:     -0.247D-05 0.939D-05-0.187D-03-0.284D-03-0.149D-02-0.220D-02
 Coeff:     -0.523D-03 0.602D-01 0.336D+00 0.608D+00
 Gap=     0.361 Goal=   None    Shift=    0.000
 RMSDP=5.28D-08 MaxDP=1.26D-06 DE=-3.40D-10 OVMax= 3.22D-06

 Cycle  11  Pass 1  IDiag  1:
 E= -761.061468336311     Delta-E=       -0.000000000037 Rises=F Damp=F
 DIIS: error= 3.75D-07 at cycle  11 NSaved=  11.
 NSaved=11 IEnMin=11 EnMin= -761.061468336311     IErMin=11 ErrMin= 3.75D-07
 ErrMax= 3.75D-07  0.00D+00 EMaxC= 1.00D-01 BMatC= 2.92D-11 BMatP= 9.58D-11
 IDIUse=1 WtCom= 1.00D+00 WtEn= 0.00D+00
 Coeff-Com:  0.626D-07 0.610D-06 0.149D-04 0.252D-04-0.187D-03-0.293D-04
 Coeff-Com: -0.140D-02-0.189D-01 0.321D-01 0.384D+00 0.604D+00
 Coeff:      0.626D-07 0.610D-06 0.149D-04 0.252D-04-0.187D-03-0.293D-04
 Coeff:     -0.140D-02-0.189D-01 0.321D-01 0.384D+00 0.604D+00
 Gap=     0.361 Goal=   None    Shift=    0.000
 RMSDP=2.07D-08 MaxDP=5.24D-07 DE=-3.71D-11 OVMax= 1.21D-06

 Cycle  12  Pass 1  IDiag  1:
 E= -761.061468336340     Delta-E=       -0.000000000028 Rises=F Damp=F
 DIIS: error= 2.02D-08 at cycle  12 NSaved=  12.
 NSaved=12 IEnMin=12 EnMin= -761.061468336340     IErMin=12 ErrMin= 2.02D-08
 ErrMax= 2.02D-08  0.00D+00 EMaxC= 1.00D-01 BMatC= 1.24D-13 BMatP= 2.92D-11
 IDIUse=1 WtCom= 1.00D+00 WtEn= 0.00D+00
 Coeff-Com:  0.175D-06-0.907D-07 0.410D-05 0.476D-05-0.105D-04 0.899D-05
 Coeff-Com: -0.219D-03-0.438D-02-0.318D-02 0.558D-01 0.115D+00 0.837D+00
 Coeff:      0.175D-06-0.907D-07 0.410D-05 0.476D-05-0.105D-04 0.899D-05
 Coeff:     -0.219D-03-0.438D-02-0.318D-02 0.558D-01 0.115D+00 0.837D+00
 Gap=     0.361 Goal=   None    Shift=    0.000
 RMSDP=1.89D-09 MaxDP=3.96D-08 DE=-2.82D-11 OVMax= 1.37D-07

 Error on total polarization charges =  0.01365
 SCF Done:  E(RPBE1PBE) =  -761.061468336     A.U. after   12 cycles
            NFock= 12  Conv=0.19D-08     -V/T= 2.0013
 KE= 7.600577398059D+02 PE=-2.420479906938D+03 EE= 5.904007560269D+02
 Leave Link  502 at Tue Oct 28 16:02:44 2025, MaxMem=  2097152000 cpu:             129.9 elap:              20.2
 (Enter /home/pcmt/gaussian/g16.C.01/g16/l601.exe)
 Copying SCF densities to generalized density rwf, IOpCl= 0 IROHF=0.

 **********************************************************************

            Population analysis using the SCF Density.

 **********************************************************************

 Orbital symmetries:
       Occupied  (A) (A) (A) (A) (A) (A) (A) (A) (A) (A) (A) (A)
                 (A) (A) (A) (A) (A) (A) (A) (A) (A) (A) (A) (A)
                 (A)
       Virtual   (A) (A) (A) (A) (A) (A) (A) (A) (A) (A) (A) (A)
                 (A) (A) (A) (A) (A) (A) (A) (A) (A) (A) (A) (A)
                 (A) (A) (A) (A) (A) (A) (A) (A) (A) (A) (A) (A)
                 (A) (A) (A) (A) (A) (A) (A) (A) (A) (A) (A) (A)
                 (A) (A) (A) (A) (A) (A) (A) (A) (A) (A) (A) (A)
                 (A) (A) (A) (A) (A) (A) (A) (A) (A) (A) (A) (A)
                 (A) (A) (A) (A) (A) (A) (A) (A) (A) (A) (A) (A)
                 (A) (A) (A) (A) (A) (A) (A) (A) (A) (A) (A) (A)
                 (A) (A) (A) (A) (A) (A) (A) (A) (A) (A) (A) (A)
                 (A) (A) (A) (A) (A) (A) (A) (A) (A) (A) (A) (A)
                 (A) (A) (A) (A) (A) (A) (A) (A) (A) (A) (A) (A)
                 (A) (A) (A) (A) (A) (A) (A) (A) (A) (A)
 The electronic state is 1-A.
 Alpha  occ. eigenvalues -- -102.08057 -19.32921 -19.28546 -19.23491 -19.22852
 Alpha  occ. eigenvalues --   -9.85076  -7.58700  -7.58419  -7.58357  -1.41993
 Alpha  occ. eigenvalues --   -1.20939  -1.15194  -1.11573  -0.79665  -0.66430
 Alpha  occ. eigenvalues --   -0.61251  -0.60637  -0.53164  -0.49632  -0.46206
 Alpha  occ. eigenvalues --   -0.44147  -0.43577  -0.37505  -0.34644  -0.32560
 Alpha virt. eigenvalues --    0.03584   0.05438   0.07467   0.09116   0.19134
 Alpha virt. eigenvalues --    0.27944   0.28965   0.31051   0.34554   0.35746
 Alpha virt. eigenvalues --    0.39230   0.39751   0.40243   0.41351   0.45546
 Alpha virt. eigenvalues --    0.46089   0.46267   0.53200   0.54245   0.55113
 Alpha virt. eigenvalues --    0.56132   0.57422   0.59435   0.60296   0.65393
 Alpha virt. eigenvalues --    0.73633   0.82734   0.88602   0.91013   0.92321
 Alpha virt. eigenvalues --    1.06243   1.20577   1.29714   1.31513   1.36433
 Alpha virt. eigenvalues --    1.38018   1.39299   1.40896   1.49249   1.58002
 Alpha virt. eigenvalues --    1.62164   1.65184   1.66298   1.71084   1.75353
 Alpha virt. eigenvalues --    1.79086   1.80256   1.84756   1.85724   1.89975
 Alpha virt. eigenvalues --    1.96875   2.05989   2.10508   2.12448   2.14559
 Alpha virt. eigenvalues --    2.15308   2.18671   2.22622   2.25888   2.36593
 Alpha virt. eigenvalues --    2.39728   2.46093   2.48109   2.50378   2.51564
 Alpha virt. eigenvalues --    2.65663   2.69743   2.73790   2.79656   2.83514
 Alpha virt. eigenvalues --    2.87057   2.88246   2.91168   2.96420   2.97676
 Alpha virt. eigenvalues --    3.02003   3.07121   3.11103   3.24982   3.27261
 Alpha virt. eigenvalues --    3.35192   3.59934   3.85836   4.11927   4.20754
 Alpha virt. eigenvalues --    4.31641   4.99399   5.03314   5.06536   5.06771
 Alpha virt. eigenvalues --    5.08157   5.09495   5.11013   5.11170   5.11598
 Alpha virt. eigenvalues --    5.12291   5.12857   5.19342   5.22751   5.25454
 Alpha virt. eigenvalues --    5.31242   5.34578   5.39452   5.45117   5.49601
 Alpha virt. eigenvalues --    5.57284   5.63437   5.69048   5.77387   5.81689
 Alpha virt. eigenvalues --    5.92202   5.97920   6.02716   6.24303   6.25972
 Alpha virt. eigenvalues --    6.28205   6.29118   6.31634   6.38202   6.42978
 Alpha virt. eigenvalues --    6.46380   6.51638   6.63402   6.64886   6.71216
 Alpha virt. eigenvalues --    6.73610   6.81585   6.86112   6.90880   6.95489
 Alpha virt. eigenvalues --    6.96661   7.00404   7.01436   7.10459  11.17447
 Alpha virt. eigenvalues --   11.22007  11.35618  30.82797  43.42016  43.61563
 Alpha virt. eigenvalues --   43.65278  43.73682
     Molecular Orbital Coefficients:
                           1         2         3         4         5
                           O         O         O         O         O
     Eigenvalues --  -102.08057 -19.32921 -19.28546 -19.23491 -19.22852
   1 1   O  1S          0.00002  -0.00004  -0.00009   0.43534   0.00079
   2        2S         -0.00008  -0.00004  -0.00007   0.63975   0.00121
   3        3S          0.00080  -0.00016  -0.00054   0.03379  -0.00039
   4        4S         -0.00170   0.00076   0.00193  -0.02320   0.00179
   5        5S         -0.00032  -0.00091  -0.00364   0.00704  -0.00242
   6        6PX         0.00006  -0.00005   0.00002   0.00063   0.00001
   7        6PY        -0.00020  -0.00002   0.00003  -0.00205   0.00007
   8        6PZ         0.00010  -0.00008  -0.00003   0.00096   0.00008
   9        7PX        -0.00034   0.00028   0.00016  -0.00127   0.00003
  10        7PY         0.00124  -0.00003  -0.00052   0.00497  -0.00064
  11        7PZ        -0.00063   0.00045   0.00027  -0.00250  -0.00016
  12        8PX        -0.00011   0.00004   0.00073   0.00033  -0.00012
  13        8PY         0.00013   0.00031   0.00098  -0.00137   0.00086
  14        8PZ        -0.00005  -0.00018  -0.00094   0.00056  -0.00048
  15        9D 0       -0.00002  -0.00005  -0.00004  -0.00007   0.00010
  16        9D+1        0.00001   0.00001  -0.00005   0.00007  -0.00003
  17        9D-1       -0.00005   0.00003  -0.00004  -0.00024  -0.00004
  18        9D+2       -0.00004  -0.00002   0.00005  -0.00022   0.00000
  19        9D-2       -0.00003   0.00005  -0.00001  -0.00013  -0.00003
  20       10D 0        0.00018   0.00027   0.00007   0.00033  -0.00048
  21       10D+1       -0.00016  -0.00000   0.00024  -0.00033   0.00012
  22       10D-1        0.00054  -0.00020   0.00003   0.00120   0.00012
  23       10D+2        0.00048   0.00010  -0.00028   0.00111  -0.00013
  24       10D-2        0.00033  -0.00030  -0.00009   0.00061   0.00007
  25       11F 0        0.00011   0.00004   0.00001   0.00014  -0.00005
  26       11F+1       -0.00000  -0.00001   0.00004  -0.00001   0.00000
  27       11F-1       -0.00001  -0.00006  -0.00002   0.00001   0.00010
  28       11F+2        0.00015  -0.00003  -0.00003   0.00018   0.00002
  29       11F-2        0.00012  -0.00003  -0.00001   0.00010  -0.00003
  30       11F+3        0.00013  -0.00006   0.00001   0.00012   0.00002
  31       11F-3       -0.00009  -0.00004   0.00008  -0.00014   0.00003
  32 2   Cl 1S          1.00052   0.00008   0.00007   0.00009   0.00009
  33        2S         -0.03292  -0.00016  -0.00014  -0.00019  -0.00018
  34        3S         -0.01208  -0.00054  -0.00049  -0.00062  -0.00062
  35        4S          0.00519   0.00007   0.00002   0.00016   0.00009
  36        5S          0.00316   0.00478   0.00483   0.00538   0.00614
  37        6PX        -0.00003   0.00003  -0.00003   0.00001   0.00002
  38        6PY        -0.00002   0.00002   0.00001  -0.00004   0.00000
  39        6PZ        -0.00002   0.00001   0.00000   0.00002  -0.00003
  40        7PX         0.00004  -0.00012   0.00008  -0.00004  -0.00006
  41        7PY         0.00001  -0.00005  -0.00003   0.00012  -0.00001
  42        7PZ         0.00001  -0.00004  -0.00000  -0.00007   0.00011
  43        8PX         0.00003   0.00088  -0.00094   0.00036   0.00043
  44        8PY        -0.00003   0.00049   0.00027  -0.00092  -0.00002
  45        8PZ        -0.00002   0.00034   0.00006   0.00051  -0.00095
  46        9PX        -0.00052  -0.00486   0.00632  -0.00203  -0.00237
  47        9PY         0.00016  -0.00317  -0.00184   0.00523   0.00047
  48        9PZ         0.00013  -0.00192  -0.00052  -0.00283   0.00571
  49       10PX         0.00045  -0.00050  -0.00805  -0.00101  -0.00044
  50       10PY        -0.00015   0.00040   0.00240  -0.00118  -0.00035
  51       10PZ         0.00001   0.00076   0.00105   0.00096  -0.00142
  52       11D 0       -0.00004  -0.00017  -0.00034  -0.00013   0.00063
  53       11D+1       -0.00001   0.00023  -0.00015   0.00004  -0.00021
  54       11D-1       -0.00000   0.00028   0.00004  -0.00047   0.00011
  55       11D+2        0.00009  -0.00004   0.00049  -0.00043   0.00003
  56       11D-2       -0.00004   0.00043  -0.00035  -0.00014  -0.00005
  57       12D 0       -0.00013  -0.00068  -0.00146  -0.00051   0.00227
  58       12D+1       -0.00006   0.00163  -0.00063   0.00138  -0.00214
  59       12D-1       -0.00002   0.00065   0.00020  -0.00166   0.00094
  60       12D+2        0.00042   0.00086   0.00230  -0.00181  -0.00007
  61       12D-2       -0.00019   0.00273  -0.00150  -0.00146   0.00026
  62       13F 0        0.00070   0.00019  -0.00016   0.00025   0.00036
  63       13F+1       -0.00044   0.00026  -0.00038   0.00014  -0.00030
  64       13F-1        0.00023   0.00005   0.00007  -0.00007   0.00015
  65       13F+2        0.00016  -0.00010  -0.00026   0.00036   0.00014
  66       13F-2       -0.00009  -0.00040   0.00017   0.00022  -0.00017
  67       13F+3        0.00050   0.00005   0.00028   0.00019  -0.00011
  68       13F-3       -0.00063  -0.00023  -0.00032  -0.00011   0.00014
  69 3   O  1S          0.00002  -0.00009   0.43535   0.00008   0.00007
  70        2S         -0.00006  -0.00008   0.63973   0.00016   0.00015
  71        3S          0.00070  -0.00052   0.03412  -0.00049  -0.00048
  72        4S         -0.00161   0.00168  -0.02469   0.00171   0.00176
  73        5S         -0.00111  -0.00076   0.01258  -0.00120  -0.00174
  74        6PX        -0.00020   0.00009  -0.00230   0.00006   0.00005
  75        6PY         0.00006  -0.00002   0.00062  -0.00001  -0.00001
  76        6PZ         0.00002  -0.00000   0.00022   0.00000  -0.00000
  77        7PX         0.00145  -0.00095   0.00548  -0.00071  -0.00066
  78        7PY        -0.00044   0.00008  -0.00159   0.00030   0.00018
  79        7PZ        -0.00016  -0.00001  -0.00059  -0.00006   0.00022
  80        8PX         0.00035   0.00044  -0.00263   0.00073   0.00083
  81        8PY        -0.00010  -0.00033   0.00074   0.00007  -0.00021
  82        8PZ        -0.00005  -0.00021   0.00027  -0.00021   0.00014
  83        9D 0       -0.00002  -0.00003  -0.00018  -0.00003   0.00007
  84        9D+1       -0.00001   0.00001  -0.00006  -0.00002  -0.00001
  85        9D-1        0.00000   0.00006   0.00002  -0.00006   0.00001
  86        9D+2        0.00004  -0.00001   0.00027  -0.00002   0.00004
  87        9D-2       -0.00003   0.00001  -0.00017  -0.00001  -0.00003
  88       10D 0        0.00040  -0.00002   0.00090  -0.00000  -0.00031
  89       10D+1        0.00015  -0.00004   0.00033   0.00008  -0.00007
  90       10D-1       -0.00004  -0.00019  -0.00010   0.00021  -0.00001
  91       10D+2       -0.00060   0.00028  -0.00134   0.00020   0.00002
  92       10D-2        0.00039  -0.00011   0.00088  -0.00010   0.00000
  93       11F 0        0.00003  -0.00002   0.00006  -0.00002   0.00001
  94       11F+1       -0.00016  -0.00001  -0.00018   0.00000   0.00008
  95       11F-1        0.00004  -0.00001   0.00005   0.00002  -0.00002
  96       11F+2       -0.00005   0.00003  -0.00005  -0.00000  -0.00002
  97       11F-2        0.00003   0.00002   0.00004  -0.00005   0.00002
  98       11F+3        0.00015  -0.00001   0.00016  -0.00006  -0.00000
  99       11F-3       -0.00017   0.00006  -0.00019  -0.00000  -0.00000
 100 4   O  1S          0.00002  -0.00005  -0.00008  -0.00080   0.43533
 101        2S         -0.00008  -0.00003  -0.00006  -0.00112   0.63975
 102        3S          0.00081  -0.00029  -0.00052  -0.00053   0.03377
 103        4S         -0.00176   0.00131   0.00192   0.00196  -0.02309
 104        5S         -0.00049  -0.00235  -0.00404  -0.00297   0.00666
 105        6PX         0.00007  -0.00005   0.00003   0.00001   0.00076
 106        6PY        -0.00003  -0.00009  -0.00001   0.00010  -0.00035
 107        6PZ        -0.00022   0.00000   0.00003   0.00001  -0.00218
 108        7PX        -0.00043   0.00026   0.00012   0.00002  -0.00157
 109        7PY         0.00019   0.00035  -0.00005  -0.00045   0.00073
 110        7PZ         0.00144  -0.00024  -0.00045  -0.00040   0.00545
 111        8PX        -0.00013  -0.00007   0.00065  -0.00014   0.00033
 112        8PY         0.00006   0.00017  -0.00019   0.00011  -0.00021
 113        8PZ         0.00018   0.00092   0.00154   0.00114  -0.00126
 114        9D 0        0.00006   0.00001   0.00001   0.00003   0.00031
 115        9D+1       -0.00003   0.00004   0.00002  -0.00001  -0.00018
 116        9D-1        0.00002   0.00008  -0.00001  -0.00009   0.00007
 117        9D+2        0.00001   0.00001   0.00008  -0.00004   0.00001
 118        9D-2       -0.00001   0.00004  -0.00005  -0.00003  -0.00002
 119       10D 0       -0.00072   0.00000   0.00007  -0.00003  -0.00158
 120       10D+1        0.00043  -0.00024  -0.00019   0.00001   0.00084
 121       10D-1       -0.00019  -0.00038   0.00007   0.00047  -0.00035
 122       10D+2       -0.00007  -0.00001  -0.00024   0.00016  -0.00006
 123       10D-2        0.00006  -0.00019   0.00016   0.00010   0.00009
 124       11F 0        0.00017  -0.00001  -0.00005   0.00001   0.00023
 125       11F+1       -0.00019   0.00006   0.00002   0.00000  -0.00018
 126       11F-1        0.00008   0.00008  -0.00001  -0.00011   0.00008
 127       11F+2        0.00004   0.00001   0.00006  -0.00002   0.00003
 128       11F-2       -0.00004   0.00003  -0.00004  -0.00002  -0.00003
 129       11F+3       -0.00001  -0.00002  -0.00002   0.00002   0.00001
 130       11F-3        0.00001  -0.00003   0.00002   0.00001  -0.00001
 131 5   O  1S          0.00002   0.43530   0.00008   0.00004   0.00004
 132        2S         -0.00008   0.63962   0.00017   0.00007   0.00010
 133        3S          0.00078   0.03475  -0.00056  -0.00017  -0.00024
 134        4S         -0.00170  -0.02503   0.00194   0.00095   0.00119
 135        5S         -0.00027   0.00723  -0.00368  -0.00155  -0.00335
 136        6PX         0.00016   0.00185  -0.00002  -0.00002  -0.00001
 137        6PY         0.00015  -0.00005  -0.00007   0.00005  -0.00005
 138        6PZ         0.00008   0.00108  -0.00002  -0.00008   0.00011
 139        7PX        -0.00104  -0.00405   0.00052   0.00017   0.00012
 140        7PY        -0.00097  -0.00131   0.00044  -0.00041   0.00040
 141        7PZ        -0.00050  -0.00238   0.00019   0.00049  -0.00046
 142        8PX        -0.00015   0.00062  -0.00013  -0.00047  -0.00098
 143        8PY        -0.00012  -0.00070  -0.00176  -0.00154  -0.00039
 144        8PZ        -0.00002   0.00050  -0.00078  -0.00001  -0.00072
 145        9D 0       -0.00002  -0.00019  -0.00004  -0.00006   0.00007
 146        9D+1        0.00003   0.00016  -0.00001  -0.00002   0.00003
 147        9D-1        0.00003   0.00006   0.00006  -0.00003   0.00005
 148        9D+2        0.00002  -0.00009   0.00001  -0.00006   0.00002
 149        9D-2        0.00006   0.00027  -0.00005   0.00004  -0.00001
 150       10D 0        0.00024   0.00085   0.00006   0.00028  -0.00037
 151       10D+1       -0.00036  -0.00078   0.00014   0.00016  -0.00016
 152       10D-1       -0.00033  -0.00041  -0.00016   0.00012  -0.00026
 153       10D+2       -0.00020   0.00039   0.00006   0.00026  -0.00005
 154       10D-2       -0.00065  -0.00134   0.00035  -0.00022   0.00008
 155       11F 0        0.00009   0.00017   0.00001   0.00001  -0.00000
 156       11F+1        0.00005   0.00003   0.00004   0.00003  -0.00006
 157       11F-1        0.00005  -0.00004   0.00000   0.00008  -0.00008
 158       11F+2       -0.00007   0.00004   0.00001  -0.00001   0.00005
 159       11F-2       -0.00015  -0.00015   0.00004   0.00004  -0.00002
 160       11F+3        0.00006   0.00012  -0.00005   0.00004  -0.00002
 161       11F-3       -0.00016  -0.00028   0.00003   0.00006  -0.00002
 162 6   H  1S         -0.00008   0.00074   0.00001   0.00012  -0.00010
 163        2S         -0.00011   0.00102  -0.00008  -0.00104   0.00084
 164        3S         -0.00002  -0.00189  -0.00033  -0.00047  -0.00030
 165        4PX        -0.00002  -0.00013   0.00011  -0.00011   0.00009
 166        4PY        -0.00005   0.00072   0.00001  -0.00028   0.00011
 167        4PZ        -0.00000  -0.00024   0.00004  -0.00003   0.00000
                           6         7         8         9        10
                           O         O         O         O         O
     Eigenvalues --    -9.85076  -7.58700  -7.58419  -7.58357  -1.41993
   1 1   O  1S         -0.00005  -0.00002  -0.00011   0.00010  -0.02700
   2        2S         -0.00021  -0.00004  -0.00017   0.00014  -0.06300
   3        3S          0.00165  -0.00001  -0.00047   0.00061   0.08563
   4        4S         -0.00377   0.00070   0.00350  -0.00392   0.11802
   5        5S          0.00159  -0.00013   0.00210  -0.00199   0.00964
   6        6PX         0.00011   0.00001   0.00006  -0.00007   0.01169
   7        6PY        -0.00040  -0.00009  -0.00020   0.00010  -0.04900
   8        6PZ         0.00021  -0.00001   0.00010  -0.00010   0.02385
   9        7PX        -0.00066   0.00055   0.00046  -0.00075   0.00840
  10        7PY         0.00245   0.00004  -0.00221   0.00277  -0.03892
  11        7PZ        -0.00125   0.00062   0.00141  -0.00085   0.01848
  12        8PX        -0.00014  -0.00006   0.00040  -0.00017  -0.00004
  13        8PY        -0.00051  -0.00013  -0.00122   0.00105   0.00124
  14        8PZ         0.00036   0.00002   0.00046  -0.00072  -0.00080
  15        9D 0       -0.00003  -0.00004  -0.00003  -0.00003  -0.00091
  16        9D+1        0.00002   0.00002  -0.00000   0.00001   0.00072
  17        9D-1       -0.00007   0.00001  -0.00003   0.00001  -0.00251
  18        9D+2       -0.00007  -0.00003  -0.00000  -0.00001  -0.00247
  19        9D-2       -0.00004   0.00002  -0.00001   0.00003  -0.00129
  20       10D 0        0.00035   0.00034   0.00012   0.00047  -0.00237
  21       10D+1       -0.00032   0.00009   0.00009  -0.00017   0.00113
  22       10D-1        0.00100  -0.00020  -0.00044   0.00028  -0.00621
  23       10D+2        0.00089   0.00033  -0.00040   0.00055  -0.00619
  24       10D-2        0.00062  -0.00036  -0.00008   0.00024  -0.00252
  25       11F 0        0.00011   0.00007   0.00014  -0.00006  -0.00109
  26       11F+1       -0.00000  -0.00002   0.00001  -0.00002  -0.00005
  27       11F-1       -0.00002  -0.00005  -0.00002  -0.00001   0.00012
  28       11F+2        0.00015   0.00002   0.00016  -0.00011  -0.00144
  29       11F-2        0.00016   0.00004   0.00010  -0.00006  -0.00046
  30       11F+3        0.00014  -0.00001   0.00010  -0.00012  -0.00063
  31       11F-3       -0.00010  -0.00006  -0.00008   0.00006   0.00107
  32 2   Cl 1S         -0.29224  -0.00119  -0.00043  -0.00014   0.06639
  33        2S         -0.22003  -0.00104  -0.00046  -0.00015   0.05864
  34        3S          0.82615   0.00359   0.00120   0.00039  -0.37053
  35        4S          0.03156  -0.00115   0.00056   0.00015   0.51871
  36        5S         -0.00376   0.00209  -0.00216  -0.00066   0.18280
  37        6PX        -0.00112   0.51182  -0.46917  -0.14738   0.01861
  38        6PY        -0.00206   0.41094   0.52505  -0.24357   0.01012
  39        6PZ        -0.00138   0.26989   0.09030   0.65037   0.00538
  40        7PX        -0.00066   0.24782  -0.22698  -0.07132   0.01008
  41        7PY        -0.00141   0.19914   0.25420  -0.11790   0.00524
  42        7PZ        -0.00095   0.13076   0.04375   0.31482   0.00286
  43        8PX        -0.00012   0.05376  -0.04934  -0.01543  -0.02455
  44        8PY        -0.00036   0.04279   0.05480  -0.02549  -0.01164
  45        8PZ        -0.00023   0.02822   0.00935   0.06806  -0.00649
  46        9PX        -0.00108  -0.01083   0.01072   0.00329  -0.02277
  47        9PY         0.00001  -0.00834  -0.01180   0.00576  -0.02257
  48        9PZ         0.00010  -0.00592  -0.00190  -0.01563  -0.01180
  49       10PX         0.00254   0.00018  -0.00011  -0.00006  -0.00457
  50       10PY        -0.00066   0.00052   0.00087  -0.00055  -0.00198
  51       10PZ        -0.00019  -0.00018   0.00000   0.00068  -0.00042
  52       11D 0       -0.00024   0.00033   0.00041  -0.00015  -0.00719
  53       11D+1        0.00014  -0.00089   0.00032  -0.00058   0.00356
  54       11D-1        0.00013  -0.00069  -0.00057  -0.00013   0.00305
  55       11D+2        0.00028   0.00012   0.00012  -0.00003   0.00829
  56       11D-2        0.00012  -0.00143   0.00021   0.00047   0.00445
  57       12D 0       -0.00040  -0.00101  -0.00163  -0.00297  -0.00559
  58       12D+1       -0.00016   0.00205  -0.00042   0.00301   0.00143
  59       12D-1       -0.00004   0.00075   0.00145  -0.00196   0.00180
  60       12D+2        0.00103   0.00015   0.00248  -0.00103   0.00404
  61       12D-2       -0.00043   0.00314   0.00030  -0.00145   0.00144
[...]
               16            17            18 
     16  0.366501D+00
     17 -0.172689D+00  0.147224D+00
     18 -0.885447D-01  0.335928D-01  0.259312D-01
 FormGI is forming the generalized inverse of G from B-inverse, IUseBI=4.
 Force constants in internal coordinates: 
                1             2             3             4             5 
      1  0.648782D+00
      2  0.119213D-01  0.628122D+00
      3  0.119529D-01  0.150539D-01  0.627046D+00
      4  0.128772D-01  0.111264D-01  0.110510D-01  0.260020D+00
      5 -0.766068D-02 -0.518576D-02 -0.519630D-02  0.792629D-02  0.481821D+00
      6  0.187996D-01  0.189357D-01 -0.191377D-01 -0.270267D-01  0.554931D-02
      7  0.188131D-01 -0.191486D-01  0.190124D-01 -0.269858D-01  0.556739D-02
      8  0.246424D-01 -0.202882D-01 -0.203126D-01  0.437520D-01 -0.146520D-02
      9 -0.188927D-01  0.222239D-01  0.222810D-01 -0.315799D-01  0.513656D-02
     10 -0.230812D-01  0.156812D-01 -0.238650D-01  0.318371D-01 -0.936106D-02
     11 -0.230854D-01 -0.238477D-01  0.155324D-01  0.315618D-01 -0.937450D-02
     12  0.110748D-01  0.616793D-03  0.556603D-03  0.513748D-01  0.109566D-01
     13 -0.793625D-05  0.202227D-01 -0.202121D-01  0.263005D-04 -0.206880D-05
     14 -0.229210D-01  0.207853D-02  0.195472D-01 -0.196218D-02 -0.185310D-02
     15  0.229337D-01 -0.195581D-01 -0.205561D-02  0.198545D-02  0.186137D-02
                6             7             8             9            10 
      6  0.190104D+00
      7  0.950913D-02  0.190096D+00
      8 -0.100406D+00 -0.100553D+00  0.349557D+00
      9  0.981186D-02  0.978968D-02 -0.752478D-01  0.192888D+00
     10 -0.854710D-01 -0.725144D-01 -0.109899D-02 -0.984115D-01  0.314025D+00
     11 -0.724703D-01 -0.853006D-01 -0.112643D-02 -0.981489D-01  0.633614D-02
     12 -0.165570D-02 -0.152467D-02  0.316649D-01 -0.450478D-02 -0.107154D-01
     13  0.669219D-01 -0.669152D-01  0.755508D-05  0.000000D+00  0.356938D-01
     14 -0.662358D-01 -0.403895D-02 -0.443150D-01  0.613630D-01  0.820126D-02
     15  0.403800D-02  0.661906D-01  0.443715D-01 -0.613643D-01 -0.430603D-01
               11            12            13            14            15 
     11  0.313473D+00
     12 -0.108355D-01  0.187133D+00
     13 -0.356915D-01 -0.228967D-04  0.615455D-01
     14  0.430067D-01 -0.815752D-02 -0.269556D-01  0.634104D-01
     15 -0.816272D-02  0.822876D-02 -0.269708D-01 -0.344508D-01  0.634325D-01
 Leave Link  716 at Tue Oct 28 16:08:45 2025, MaxMem=  2097152000 cpu:               0.3 elap:               0.1
 (Enter /home/pcmt/gaussian/g16.C.01/g16/l103.exe)

 GradGradGradGradGradGradGradGradGradGradGradGradGradGradGradGradGradGrad
 Berny optimization.
 Red2BG is reusing G-inverse.
 Internal  Forces:  Max     0.000221757 RMS     0.000096543
 Search for a local minimum.
 Step number   1 out of a maximum of    2
 All quantities printed in internal units (Hartrees-Bohrs-Radians)
 Second derivative matrix not updated -- analytic derivatives used.
 The second derivative matrix:
                          R1        R2        R3        R4        R5
           R1           0.64878
           R2           0.01192   0.62812
           R3           0.01195   0.01505   0.62705
           R4           0.01288   0.01113   0.01105   0.26002
           R5          -0.00766  -0.00519  -0.00520   0.00793   0.48182
           A1           0.01880   0.01894  -0.01914  -0.02703   0.00555
           A2           0.01881  -0.01915   0.01901  -0.02699   0.00557
           A3           0.02464  -0.02029  -0.02031   0.04375  -0.00147
           A4          -0.01889   0.02222   0.02228  -0.03158   0.00514
           A5          -0.02308   0.01568  -0.02386   0.03184  -0.00936
           A6          -0.02309  -0.02385   0.01553   0.03156  -0.00937
           A7           0.01107   0.00062   0.00056   0.05137   0.01096
           D1          -0.00001   0.02022  -0.02021   0.00003  -0.00000
           D2          -0.02292   0.00208   0.01955  -0.00196  -0.00185
           D3           0.02293  -0.01956  -0.00206   0.00199   0.00186
                          A1        A2        A3        A4        A5
           A1           0.19010
           A2           0.00951   0.19010
           A3          -0.10041  -0.10055   0.34956
           A4           0.00981   0.00979  -0.07525   0.19289
           A5          -0.08547  -0.07251  -0.00110  -0.09841   0.31403
           A6          -0.07247  -0.08530  -0.00113  -0.09815   0.00634
           A7          -0.00166  -0.00152   0.03166  -0.00450  -0.01072
           D1           0.06692  -0.06692   0.00001   0.00000   0.03569
           D2          -0.06624  -0.00404  -0.04432   0.06136   0.00820
           D3           0.00404   0.06619   0.04437  -0.06136  -0.04306
                          A6        A7        D1        D2        D3
           A6           0.31347
           A7          -0.01084   0.18713
           D1          -0.03569  -0.00002   0.06155
           D2           0.04301  -0.00816  -0.02696   0.06341
           D3          -0.00816   0.00823  -0.02697  -0.03445   0.06343
 ITU=  0
     Eigenvalues ---    0.00379   0.15415   0.24501   0.24749   0.26105
     Eigenvalues ---    0.31678   0.36123   0.48166   0.55746   0.62547
     Eigenvalues ---    0.64531   0.67205
 Angle between quadratic step and forces=  77.09 degrees.
 Linear search not attempted -- first point.
 Iteration  1 RMS(Cart)=  0.00086592 RMS(Int)=  0.00000079
 Iteration  2 RMS(Cart)=  0.00000066 RMS(Int)=  0.00000001
 ITry= 1 IFail=0 DXMaxC= 2.16D-03 DCOld= 1.00D+10 DXMaxT= 3.00D-01 DXLimC= 3.00D+00 Rises=F
 Variable       Old X    -DE/DX   Delta X   Delta X   Delta X     New X
                                 (Linear)    (Quad)   (Total)
    R1        2.65749  -0.00022   0.00000  -0.00033  -0.00033   2.65716
    R2        2.66639   0.00018   0.00000   0.00027   0.00027   2.66666
    R3        2.66686  -0.00014   0.00000  -0.00021  -0.00021   2.66665
    R4        3.01860  -0.00000   0.00000   0.00002   0.00002   3.01863
    R5        1.84768  -0.00008   0.00000  -0.00017  -0.00017   1.84751
    A1        1.99300  -0.00005   0.00000  -0.00022  -0.00022   1.99278
    A2        1.99271  -0.00001   0.00000   0.00012   0.00012   1.99283
    A3        1.76534  -0.00000   0.00000   0.00002   0.00002   1.76535
    A4        1.97658   0.00000   0.00000   0.00002   0.00002   1.97660
    A5        1.85541   0.00015   0.00000   0.00038   0.00038   1.85579
    A6        1.85600  -0.00008   0.00000  -0.00030  -0.00030   1.85570
    A7        1.88171  -0.00003   0.00000  -0.00015  -0.00015   1.88156
    D1        3.14047   0.00002   0.00000   0.00208   0.00208  -3.14064
    D2        1.05437   0.00002   0.00000   0.00217   0.00217   1.05654
    D3       -1.05671  -0.00002   0.00000   0.00210   0.00210  -1.05461
         Item               Value     Threshold  Converged?
 Maximum Force            0.000222     0.000450     YES
 RMS     Force            0.000097     0.000300     YES
 Maximum Displacement     0.002162     0.001800     NO 
 RMS     Displacement     0.000866     0.001200     YES
 Predicted change in Energy=-1.561302D-07
                           ----------------------------
                           ! Non-Optimized Parameters !
                           ! (Angstroms and Degrees)  !
 --------------------------                            --------------------------
 ! Name  Definition              Value          Derivative Info.                !
 --------------------------------------------------------------------------------
 ! R1    R(1,2)                  1.4061         -DE/DX =   -0.0002              !
 ! R2    R(2,3)                  1.4111         -DE/DX =    0.0002              !
 ! R3    R(2,4)                  1.4111         -DE/DX =   -0.0001              !
 ! R4    R(2,5)                  1.5974         -DE/DX =    0.0                 !
 ! R5    R(5,6)                  0.9777         -DE/DX =   -0.0001              !
 ! A1    A(1,2,3)              114.1777         -DE/DX =    0.0                 !
 ! A2    A(1,2,4)              114.1808         -DE/DX =    0.0                 !
 ! A3    A(1,2,5)              101.1472         -DE/DX =    0.0                 !
 ! A4    A(3,2,4)              113.251          -DE/DX =    0.0                 !
 ! A5    A(3,2,5)              106.3289         -DE/DX =    0.0001              !
 ! A6    A(4,2,5)              106.324          -DE/DX =   -0.0001              !
 ! A7    A(2,5,6)              107.8055         -DE/DX =    0.0                 !
 ! D1    D(1,2,5,6)           -179.9456         -DE/DX =    0.0                 !
 ! D2    D(3,2,5,6)             60.535          -DE/DX =    0.0                 !
 ! D3    D(4,2,5,6)            -60.4247         -DE/DX =    0.0                 !
 --------------------------------------------------------------------------------
 GradGradGradGradGradGradGradGradGradGradGradGradGradGradGradGradGradGrad

 Leave Link  103 at Tue Oct 28 16:08:45 2025, MaxMem=  2097152000 cpu:               0.1 elap:               0.1
 (Enter /home/pcmt/gaussian/g16.C.01/g16/l9999.exe)

 ----------------------------------------------------------------------

 Electric dipole moment (input orientation):
 (Debye = 10**-18 statcoulomb cm , SI units = C m)
                  (au)            (Debye)         (10**-30 SI)
   Tot        0.139078D+01      0.353502D+01      0.117915D+02
   x         -0.655032D+00     -0.166492D+01     -0.555359D+01
   y          0.122639D+01      0.311718D+01      0.103978D+02
   z          0.342515D-01      0.870587D-01      0.290396D+00

 Dipole polarizability, Alpha (input orientation).
 (esu units = cm**3 , SI units = C**2 m**2 J**-1)
 Alpha(0;0):
               (au)            (10**-24 esu)      (10**-40 SI)
   iso        0.384298D+02      0.569470D+01      0.633621D+01
   aniso      0.219211D+01      0.324837D+00      0.361430D+00
   xx         0.393579D+02      0.583224D+01      0.648924D+01
   yx        -0.883196D+00     -0.130876D+00     -0.145619D+00
   yy         0.379694D+02      0.562648D+01      0.626031D+01
   zx        -0.334798D+00     -0.496120D-01     -0.552007D-01
   zy         0.252106D+00      0.373582D-01      0.415666D-01
   zz         0.379620D+02      0.562538D+01      0.625908D+01

 First dipole hyperpolarizability, Beta (input orientation).
 ||, _|_  parallel and perpendicular components, (z) with respect to z axis,
 vector components x,y,z.  Values do not include the 1/n! factor of 1/2.
 (esu units = statvolt**-1 cm**4 , SI units = C**3 m**3 J**-2)
 Beta(0;0,0):
               (au)            (10**-30 esu)      (10**-50 SI)
   || (z)     0.200444D+01      0.173168D-01      0.642697D-02
   _|_(z)     0.668148D+00      0.577228D-02      0.214232D-02
   x         -0.901527D+02     -0.778849D+00     -0.289062D+00
   y          0.130676D+03      0.112894D+01      0.418996D+00
   z          0.100222D+02      0.865842D-01      0.321349D-01
   ||         0.318147D+02      0.274854D+00      0.102009D+00
   xxx       -0.966398D+01     -0.834892D-01     -0.309862D-01
   xxy        0.141318D+02      0.122088D+00      0.453116D-01
   yxy       -0.179403D+02     -0.154990D+00     -0.575231D-01
   yyy        0.258012D+02      0.222902D+00      0.827280D-01
   xxz       -0.803686D+00     -0.694322D-02     -0.257691D-02
   yxz       -0.121079D+01     -0.104603D-01     -0.388222D-02
   yyz        0.301002D+01      0.260042D-01      0.965121D-02
   zxz       -0.244664D+01     -0.211370D-01     -0.784480D-02
   zyz        0.362584D+01      0.313244D-01      0.116257D-01
   zzz        0.113441D+01      0.980040D-02      0.363732D-02

 ----------------------------------------------------------------------

 Dipole orientation:
     8          1.52144645          1.89886123         -1.61172372
    17          0.29927059          0.59675865          0.35629135
     8         -2.32211692          1.05969067          0.51004284
     8          0.92153219         -1.99225053          0.50447173
     8          1.53490178          1.90721403          2.77866392
     1          0.79840952          1.12501686          4.28188179

 Electric dipole moment (dipole orientation):
 (Debye = 10**-18 statcoulomb cm , SI units = C m)
                  (au)            (Debye)         (10**-30 SI)
   Tot        0.139078D+01      0.353502D+01      0.117915D+02
   x          0.000000D+00      0.000000D+00      0.000000D+00
   y          0.000000D+00      0.000000D+00      0.000000D+00
   z          0.139078D+01      0.353502D+01      0.117915D+02

 Dipole polarizability, Alpha (dipole orientation).
 (esu units = cm**3 , SI units = C**2 m**2 J**-1)
 Alpha(0;0):
               (au)            (10**-24 esu)      (10**-40 SI)
   iso        0.384298D+02      0.569470D+01      0.633621D+01
   aniso      0.219211D+01      0.324837D+00      0.361430D+00
   xx         0.381083D+02      0.564707D+01      0.628321D+01
   yx         0.238014D+00      0.352700D-01      0.392432D-01
   yy         0.381512D+02      0.565343D+01      0.629029D+01
   zx        -0.779034D+00     -0.115441D+00     -0.128445D+00
   zy        -0.817197D+00     -0.121096D+00     -0.134738D+00
   zz         0.390297D+02      0.578361D+01      0.643513D+01

 First dipole hyperpolarizability, Beta (dipole orientation).
 ||, _|_  parallel and perpendicular components, (z) with respect to z axis,
 vector components x,y,z.  Values do not include the 1/n! factor of 1/2.
 (esu units = statvolt**-1 cm**4 , SI units = C**3 m**3 J**-2)
 Beta(0;0,0):
               (au)            (10**-30 esu)      (10**-50 SI)
   || (z)     0.315875D+02      0.272891D+00      0.101281D+00
   _|_(z)     0.105292D+02      0.909638D-01      0.337603D-01
   x         -0.129483D+02     -0.111863D+00     -0.415169D-01
   y         -0.138705D+02     -0.119830D+00     -0.444739D-01
   z          0.157938D+03      0.136446D+01      0.506405D+00
   ||         0.318147D+02      0.274854D+00      0.102009D+00
   xxx       -0.573187D+00     -0.495189D-02     -0.183785D-02
   xxy        0.839767D+00      0.725494D-02      0.269260D-02
   yxy        0.990257D+00      0.855505D-02      0.317512D-02
   yyy       -0.410039D+00     -0.354242D-02     -0.131473D-02
   xxz        0.295882D+01      0.255619D-01      0.948703D-02
   yxz       -0.174728D+01     -0.150952D-01     -0.560242D-02
   yyz        0.274149D+01      0.236844D-01      0.879022D-02
   zxz       -0.473317D+01     -0.408909D-01     -0.151762D-01
   zyz       -0.505323D+01     -0.436560D-01     -0.162025D-01
   zzz        0.469455D+02      0.405573D+00      0.150524D+00

 ----------------------------------------------------------------------

 Test job not archived.
 1\1\GINC-U-0-11\Freq\RPBE1PBE\Gen\Cl1H1O4\ROOT\28-Oct-2025\0\\#P Geom=
 AllCheck Guess=TCheck SCRF=Check Test GenChk RPBE1PBE/ChkBas Freq\\HCl
 O4.pbe0-d3bj-cosmo.optg-freq.chk\\0,1\O,1.4397959245,-0.1834555547,-0.
 5278732272\Cl,0.1632818646,0.3065894956,-0.1992332568\O,-0.8626099211,
 -0.1248610316,-1.06658112\O,-0.17096858,0.1788604151,1.1658904357\O,0.
 3529398984,1.8691752393,-0.4712004504\H,-0.4948451863,2.3128444363,-0.
 2701723813\\Version=ES64L-G16RevC.01\State=1-A\HF=-761.1140941\RMSD=3.
 693e-09\RMSF=1.175e-04\ZeroPoint=0.0280004\Thermal=0.0324733\ETot=-761
 .0816208\HTot=-761.0806766\GTot=-761.1138418\Dipole=-0.6550318,1.22639
 15,0.0342515\DipoleDeriv=-1.3737471,0.331257,0.1788513,0.2468822,-0.67
 97828,-0.0725232,0.1902838,-0.09862,-0.6967287,3.364852,-0.0051509,0.0
 141002,-0.0366707,3.2306377,0.0344984,0.0184039,0.0250963,3.398358,-1.
 1294487,-0.2637427,-0.401013,-0.1687197,-0.7432559,-0.1659333,-0.40740
 76,-0.2295274,-0.9951334,-0.7031868,-0.0376271,0.209163,0.0038237,-0.6
 503445,0.0553239,0.1971924,0.1605718,-1.5140179,-0.5506778,0.1795449,-
 0.048021,0.0033247,-1.6390103,0.1374935,-0.023982,0.0830761,-0.6302979
 ,0.3922084,-0.2042811,0.0469195,-0.0486402,0.4817558,0.0111407,0.02550
 94,0.0594032,0.43782\Polar=39.3578943,-0.8831955,37.9694025,-0.3347981
 ,0.2521058,37.9619577\PolarDeriv=18.0234658,-4.4341731,3.64935,-2.4606
 103,0.6433963,3.0893502,-2.7826473,5.0902938,-5.7490798,0.7959626,-1.1
 071718,-0.5856127,-1.9246135,0.7810092,-0.8914353,5.5243286,-2.2350566
 ,-3.6132147,-2.4645501,3.0946403,-1.9452347,2.3497353,0.4600982,1.9255
 662,0.5888335,-0.3429691,-4.5984048,0.6005296,1.1736928,0.3740123,2.75
 90781,0.2702936,1.8678738,2.1177502,1.8528962,-3.3581099,-12.7473085,-
 3.2195292,-3.1631989,-5.5422195,-1.2374013,-3.758245,-1.5430266,-4.597
 3864,-6.6337748,-1.3412096,-3.340951,-1.625921,-3.875417,-1.2816596,-2
 .5578606,-5.6892119,-2.912837,-10.4645062,-3.3152062,-0.5687896,-0.744
 0317,5.936862,0.3365706,-2.0900965,0.4579206,-1.4071051,-3.3781783,0.2
 336184,5.4140975,-0.9499917,3.1251951,0.327495,3.6785421,-2.6263824,-1
 .9355211,19.9633216,5.1846305,1.3801032,7.0256673,-0.8683085,0.0549004
 ,1.3151605,1.5041146,3.7462687,15.3285338,-0.0239479,-2.3703213,2.5702
 726,-0.8185923,0.5337435,-3.1574559,1.5450784,4.2256108,-2.8586315,-4.
 6810315,3.7477483,-4.822552,0.584541,-0.2575641,-0.4817354,1.7748052,-
 2.4891019,5.030904,-0.2649532,0.2306538,0.2172405,0.7343496,-0.6308819
 ,1.0603359,-0.871563,1.0049076,0.3311407\HyperPolar=-9.6639754,14.1317
 891,-17.9403031,25.8012003,-0.8036856,-1.2107867,3.0100183,-2.4466358,
 3.6258369,1.1344074\Quadrupole=-1.292796,3.5796337,-2.2868377,-2.53433
 26,0.0432138,-0.0160587\PG=C01 [X(Cl1H1O4)]\NImag=0\\0.54753360,-0.181
 70459,0.15314904,-0.11782969,0.04728482,0.11732507,-0.49289780,0.13879
 238,0.10182140,1.06687056,0.14805044,-0.15176704,-0.03925776,-0.046210
 99,0.58453509,0.10053262,-0.03637259,-0.12935385,-0.00965337,0.0728569
 9,1.00649863,-0.03986799,-0.01131806,-0.03409934,-0.34476425,-0.097226
 05,-0.20193267,0.37092219,0.01665104,0.01802787,0.00252502,-0.09793963
 ,-0.14137454,-0.08684154,0.12241232,0.12585544,0.00740579,-0.00481399,
 0.01368762,-0.20481590,-0.08787418,-0.27543514,0.24119086,0.10527183,0
 .29258885,-0.01114432,0.00392592,0.05193737,-0.13006579,-0.00594866,0.
 10198646,0.01131959,-0.00432564,-0.04049377,0.11682926,0.01192542,0.01
 709118,-0.01569374,-0.00639748,-0.10258018,0.03767761,-0.00363505,0.01
 930677,-0.01675940,0.01262953,0.07838700,0.00555480,0.00277367,-0.0141
 5394,0.10497889,0.03834147,-0.52794973,0.00537392,0.00115524,-0.040609
 29,-0.12187810,-0.04803236,0.59307073,-0.01092437,0.05740268,-0.001666
 17,-0.10777304,-0.00807079,0.01328924,0.00570997,-0.03179367,-0.001780
 52,0.01406268,-0.01025646,0.00232485,0.47703600,0.00524925,-0.03056109
 ,0.00378098,-0.02473551,-0.15083682,0.01883293,-0.00919819,-0.02679078
 ,0.00250179,-0.00432629,-0.01675309,0.00802009,-0.14664068,0.33777245,
 0.00543237,-0.01236146,0.00896402,0.01558300,0.01378784,-0.07493855,-0
 .01024411,-0.02287028,0.00988413,0.00686667,0.04218760,-0.00843471,-0.
 10842927,0.00747220,0.09312674,0.00730088,-0.00709833,-0.00016357,0.00
 863032,0.00940604,-0.00422229,-0.00331951,-0.00500442,-0.00150648,-0.0
 0100143,-0.00426595,0.00364565,-0.37811124,0.17965143,0.09079135,0.366
 50098,-0.00017156,-0.00593996,0.00136069,0.03649123,-0.03797650,-0.006
 15339,-0.00103497,0.00497524,0.00167396,-0.00195486,0.00454832,-0.0022
 5811,0.13935893,-0.11283066,-0.02821590,-0.17268877,0.14722355,-0.0010
 9589,0.00348955,0.00353108,-0.00791402,0.00214564,0.00117864,-0.000288
 67,0.00075974,-0.00011617,0.00158138,0.00062031,-0.00192306,0.09626186
 ,-0.04060799,-0.02860164,-0.08854467,0.03359275,0.02593115\\0.00013520
 ,-0.00018647,-0.00001223,-0.00025317,-0.00000809,-0.00011602,0.0000444
 1,0.00016857,0.00011857,-0.00010358,0.00001441,0.00014004,0.00011808,-
 0.00008351,-0.00008212,0.00005906,0.00009509,-0.00004824\\\@


 ALL MEN WHO EXPLORE
 DEPLORE
 THAT FRUSTRATING HURDLE
 THE GIRDLE.

         -- COLIN FLETCHER
 Job cpu time:       0 days  0 hours 14 minutes  2.6 seconds.
 Elapsed time:       0 days  0 hours  1 minutes 48.0 seconds.
 File lengths (MBytes):  RWF=     30 Int=      0 D2E=      0 Chk=      5 Scr=      1
 Normal termination of Gaussian 16 at Tue Oct 28 16:08:45 2025.
