

 Parallel Execution: Process Information
 ==============================================================================
 Rank   Node Name                              NodeID   MyNodeRank  NodeMaster
    0   u-0-12.local                              0          0          0
    1   u-0-12.local                              1          0          1
    2   u-0-12.local                              2          0          2
    3   u-0-12.local                              3          0          3
 ==============================================================================


May use up to 31200MB of RAM as shared memory on node 0
May use up to 31250MB of RAM as shared memory on node 1
May use up to 31250MB of RAM as shared memory on node 2
May use up to 31250MB of RAM as shared memory on node 3

 *******************************************************************************
 *                                                                             *
 *  --------------------------------                                           *
 *   Amsterdam Modeling Suite (AMS)              2025.104                      *
 *  --------------------------------                                           *
 *                                               r250815 2025-08-15 94ea0506   *
 *                                                                             *
 *                                                                             *
 *                              =================                              *
 *                              |               |                              *
 *                              |     A M S     |                              *
 *                              |               |                              *
 *                              =================                              *
 *                                                                             *
 *                                                                             *
 *   Online information and documentation:  https://www.scm.com/support/       *
 *   E-mail:  support@scm.com   info@scm.com                                   *
 *                                                                             *
 *   Scientific publications using AMS results must be properly referenced     *
 *   See the User Manuals (or the web site) for recommended citations          *
 *   The terms and conditions of the End User License Agreement apply to       *
 *   the use of AMS, https://www.scm.com/license-terms/                        *
 *                                                                             *
 **********************  x86_64_linux_intel / intelmpi  ************************
 
 Licensed to: Dr. Val?rie Vallet / Laboratoire PhLAM UMR 8523 / Villeneuve d'Ascq Cedex / FRANCE 2024-12-20 16:14:47
 SCM User ID: u10325
  
 AMS 2025.104  RunTime: Nov13-2025 11:54:15  ShM Nodes: 4  Procs: 4

 AMS jobname: DMSO.pbe0-d3bj-gp.x2c-sr
 AMS jobid  : 1468616567

 Start   directory: /state/partition2/vallet/1073345.phlam-s-sakura/
 Results directory: /home/vallet/ANL/ANL-UVI-structures-Emily/DMSO/X2C-SO/DMSO.pbe0-d3bj-gp.x2c-sr.results/
 Scratch directory: /state/partition2/vallet/1073345.phlam-s-sakura/amstmp_DMSO.pbe0-d3bj-gp.x2c-sr_kid0.1468616567/


 Communication costs MPI_COMM_WORLD:   1060.939 usec per message,   3.3941 usec per 8-byte item
 Communication costs for intra-node:      0.148 usec per message,   0.0005 usec per 8-byte item

 RNG seed: 770225933 -1841306234 -1749653644 1177451135 1222976474 -1119807241 2054471657 870206700



                      ************************************************************************
                      *  ADF 2025.104  RunTime: Nov13-2025 11:54:21  ShM Nodes: 4  Procs: 4  *
                      ************************************************************************
  

       ****************************
       * SINGLE POINT CALCULATION *
       ****************************
 
--------
Geometry
--------
Formula: C2H6OS
Atoms
  Index Symbol   x (angstrom)   y (angstrom)   z (angstrom)
      1      O     0.00000000    -0.26702300     0.13547000
      2      S     0.00000000    -0.79352500     1.54277600
      3      C     1.34365600     0.02140300     2.39252800
      4      C    -1.34365600     0.02140300     2.39252800
      5      H     1.31235800    -0.25983700     3.44636000
      6      H     2.27046600    -0.33236700     1.94082500
      7      H     1.24072800     1.10107500     2.27116400
      8      H    -1.31235800    -0.25983700     3.44636000
      9      H    -1.24072800     1.10107500     2.27116400
     10      H    -2.27046600    -0.33236700     1.94082500
 
Total System Charge             0.00000
Bonding info available!
 
 
----------------
ADF Engine Input
----------------
 
 Basis
 Type TZ2P
 Core None
 End
 XC
 Hybrid PBE0
 DISPERSION Grimme3 BJDAMP
 End
 Relativity
 Formalism X2C
 End
 NumericalQuality Good
 

 Title: *** (NO TITLE) ***

 *** adf ***



 ===========================
 A T T A C H E D   F I L E S
 ===========================
  



 ===============================
 M O D E L   P A R A M E T E R S
 ===============================
  
 DENSITY FUNCTIONAL POTENTIAL (scf)
    Hybrid:                            PBE0                                    == Not Default ==

 SPIN  (restricted / unrestr.)
    Molecule:                          Restricted                               
    Fragments:                         Restricted                               

 OTHER ASPECTS
    Relativistic Corrections:          scalar (X2C,MAPA)                       == Not Default ==

    Nuclear Charge Density Model:      Point Charge Nuclei                      
    Core Treatment:                    Frozen Orbital(s)                        

    Hyperfine or Zeeman Interaction:   ---                                      

 Settings for Grimme D3 dispersion correction

      damping                        BJ
      s6                          1.000
      s8                          1.218
      a1                          0.414
      a2                          4.859

 Other (technical) parameters

      alpha                      14.000
      version                         4
 
 WARNING: Atom coordinates do not satisfy full symmetry (probably due to orientation).


 Fragment File(s)
 ----------------
 O:
         file : /home/vallet/ANL/ANL-UVI-structures-Emily/DMSO/X2C-SO/DMSO.pbe0-d3bj-gp.x2c-sr.results/t21.6F99AD97.O
         jobid: 0
         title: Oxygen (TZ2P)
 S:
         file : /home/vallet/ANL/ANL-UVI-structures-Emily/DMSO/X2C-SO/DMSO.pbe0-d3bj-gp.x2c-sr.results/t21.566EAD18.S
         jobid: 0
         title: Sulphur (TZ2P)
 C:
         file : /home/vallet/ANL/ANL-UVI-structures-Emily/DMSO/X2C-SO/DMSO.pbe0-d3bj-gp.x2c-sr.results/t21.214C3654.C
         jobid: 0
         title: Carbon (TZ2P)
 H:
         file : /home/vallet/ANL/ANL-UVI-structures-Emily/DMSO/X2C-SO/DMSO.pbe0-d3bj-gp.x2c-sr.results/t21.FC7E34C.H
         jobid: 0
         title: Hydrogen (TZ2P)



 ===============
 G E O M E T R Y  ***  3D  Molecule  ***
 ===============
  

 ATOMS
 =====                            X Y Z                    CHARGE
                                (Angstrom)             Nucl     +Core       At.Mass
                       --------------------------    ----------------       -------
    1  O               0.0000   -0.2670    0.1355      8.00      8.00       15.9949
    2  S               0.0000   -0.7935    1.5428     16.00     16.00       31.9721
    3  C               1.3437    0.0214    2.3925      6.00      6.00       12.0000
    4  C              -1.3437    0.0214    2.3925      6.00      6.00       12.0000
    5  H               1.3124   -0.2598    3.4464      1.00      1.00        1.0078
    6  H               2.2705   -0.3324    1.9408      1.00      1.00        1.0078
    7  H               1.2407    1.1011    2.2712      1.00      1.00        1.0078
    8  H              -1.3124   -0.2598    3.4464      1.00      1.00        1.0078
    9  H              -1.2407    1.1011    2.2712      1.00      1.00        1.0078
   10  H              -2.2705   -0.3324    1.9408      1.00      1.00        1.0078


 FRAGMENTS
 =========                                     Atoms in this Fragment     Cart. coord.s (Angstrom)
                                               -------------------------------------------------------
    1  O                                                 1  O            0.0000   -0.2670    0.1355
    2  S                                                 2  S            0.0000   -0.7935    1.5428
    3  C                                                 3  C            1.3437    0.0214    2.3925
    4  C                                                 4  C           -1.3437    0.0214    2.3925
    5  H                                                 5  H            1.3124   -0.2598    3.4464
    6  H                                                 6  H            2.2705   -0.3324    1.9408
    7  H                                                 7  H            1.2407    1.1011    2.2712
    8  H                                                 8  H           -1.3124   -0.2598    3.4464
    9  H                                                 9  H           -1.2407    1.1011    2.2712
   10  H                                                10  H           -2.2705   -0.3324    1.9408


 Interatomic Distance Matrix (Angstrom)
 --------------------------------------

   1)     0.000
   2)     1.503   0.000
   3)     2.643   1.787   0.000
   4)     2.643   1.787   2.687   0.000
   5)     3.562   2.373   1.091   2.871   0.000
   6)     2.901   2.351   1.090   3.659   1.786   0.000
   7)     2.824   2.379   1.091   2.803   1.800   1.796   0.000
   8)     3.562   2.373   2.871   1.091   2.625   3.887   3.123   0.000
   9)     2.824   2.379   2.803   1.091   3.123   3.807   2.481   1.800   0.000
  10)     2.901   2.351   3.659   1.090   3.887   4.541   3.807   1.786   1.796   0.000

 Min. Distance =    1.0900
 Max. Distance =    4.5409



 =====================================
 S Y M M E T R Y ,   E L E C T R O N S
 =====================================
  
 Symmetry: NOSYM

 Irreducible Representations, including subspecies
 -------------------------------------------------
 A

 Symmetry is NOT used when fitting density


 Configuration of Valence Electrons
 ==================================
 ( determined in the SCF procedure )

 Total:   42

 Net Charge: 0 (Nuclei minus Electrons)

 Aufbau principle for MO occupations will be applied through SCF cycle no.     150
 Thereafter, the program will assign electrons to MOs that are spatially
 similar to the occupied MOs in a "reference" cycle ("KeepOrbitals").
 The reference cycle is always the PREVIOUS cycle: it will evolve with
 the SCF procedure.
 ***************************************************************************************************



                                      ****************************************
                                      *  B U I L D : (Fragments, Functions)  *
                                      ****************************************
  



 =======
 S F O s  ***  (Symmetrized Fragment Orbitals)  ***
 =======
  
 SFOs are linear combinations of (valence) Fragment Orbitals (FOs), such that the SFOs transform as the
 irreducible representations of the (molecular) symmetry group. Each SFO is therefore characterized by
 an irrep of the molecule and by a few (or only one) generating FOs.
 The SFOs constitute a symmetry-adapted basis for the Fock matrix. The MO eigenvector coefficients in
 this basis provide a direct interpretation of the MOs in terms of Frontier Orbital Theory.

 The SFOs are combined with auxiliary Core Functions (CFs) to ensure orthogonalization on the (frozen)
 Core Orbitals (COs). The Core-orthogonalized SFOs (CSFOs) constitute the true Fock basis.

 The FOs, and hence also the (C)SFOs are combinations of the elementary basis functions (BAS). The basis
 functions that participate in the description of the SFOs depend on the irrep. The indices of the
 involved functions are printed below for each irrep.
 (The complete list of primitive basis functions is printed in another section)

 Total nr. of (C)SFOs (summation over all irreps) :   178

 NOTE: a (C)SFO that is defined as a combination of more than one FO is usually NOT normalized.



                                       === A ===
 Nr. of SFOs :  178
 Cartesian basis functions that participate in this irrep (total number =   200) :
      1     2     3     4     5     6     9    12     7    10
     13     8    11    14    15    16    17    18    19    20
     21    22    23    24    25    26    27    28    29    30
     31    32    33    34    41    42    43    35    38    44
     47    50    36    39    45    48    51    37    40    46
     49    52    53    54    55    56    57    58    59    60
     61    62    63    64    65    66    67    68    69    70
     71    72    73    74    77    80    75    78    81    76
     79    82    83    84    85    86    87    88    89    90
     91    92    93    94    95    96    97    98    99   100
    101   102   103   104   107   110   105   108   111   106
    109   112   113   114   115   116   117   118   119   120
    121   122   123   124   125   126   127   128   129   130
    131   132   133   134   135   136   137   138   139   140
    141   142   143   144   145   146   147   148   149   150
    151   152   153   154   155   156   157   158   159   160
    161   162   163   164   165   166   167   168   169   170
    171   172   173   174   175   176   177   178   179   180
    181   182   183   184   185   186   187   188   189   190
    191   192   193   194   195   196   197   198   199   200

    SFO  (index         Fragment          Generating    Expansion in Fragment Orbitals
  indx  incl.CFs)   Occup   Orb.Energy   FragmentType  Coeff.   Orbital     on Fragment
 --------------------------------------------------------------------------------------
     1       1      2.000     -19.396 au  O             1.00      1 S               1
                        (    -527.798 eV)
     2       2      2.000      -0.999 au  O             1.00      2 S               1
                        (     -27.197 eV)
     3       3       --         0.856 au  O             1.00      3 S               1
                        (      23.286 eV)
     4       4       --        13.669 au  O             1.00      4 S               1
                        (     371.959 eV)
     5       5       --       122.371 au  O             1.00      5 S               1
                        (    3329.873 eV)
     6       6      1.333      -0.366 au  O             1.00      1 P:x             1
                        (      -9.955 eV)
     7       7       --         0.397 au  O             1.00      2 P:x             1
                        (      10.811 eV)
     8       8       --         3.979 au  O             1.00      3 P:x             1
                        (     108.279 eV)
     9       9      1.333      -0.366 au  O             1.00      1 P:y             1
                        (      -9.955 eV)
    10      10       --         0.397 au  O             1.00      2 P:y             1
                        (      10.811 eV)
    11      11       --         3.979 au  O             1.00      3 P:y             1
                        (     108.279 eV)
    12      12      1.333      -0.366 au  O             1.00      1 P:z             1
                        (      -9.955 eV)
    13      13       --         0.397 au  O             1.00      2 P:z             1
                        (      10.811 eV)
    14      14       --         3.979 au  O             1.00      3 P:z             1
                        (     108.279 eV)
    15      15       --         1.128 au  O             1.00      1 D:z2            1
                        (      30.706 eV)
    16      16       --         1.128 au  O             1.00      1 D:x2-y2         1
                        (      30.706 eV)
    17      17       --         1.128 au  O             1.00      1 D:xy            1
                        (      30.706 eV)
    18      18       --         1.128 au  O             1.00      1 D:xz            1
                        (      30.706 eV)
    19      19       --         1.128 au  O             1.00      1 D:yz            1
                        (      30.706 eV)
    20      20       --         3.446 au  O             1.00      1 F:z3            1
                        (      93.772 eV)
    21      21       --         3.446 au  O             1.00      1 F:z             1
                        (      93.772 eV)
    22      22       --         3.446 au  O             1.00      1 F:xyz           1
                        (      93.772 eV)
    23      23       --         3.446 au  O             1.00      1 F:z2x           1
                        (      93.772 eV)
    24      24       --         3.446 au  O             1.00      1 F:z2y           1
                        (      93.772 eV)
    25      25       --         3.446 au  O             1.00      1 F:x             1
                        (      93.772 eV)
    26      26       --         3.446 au  O             1.00      1 F:y             1
                        (      93.772 eV)
    27      27      2.000     -89.378 au  S             1.00      1 S               2
                        (   -2432.093 eV)
    28      28      2.000      -8.117 au  S             1.00      2 S               2
                        (    -220.880 eV)
    29      29      2.000      -0.714 au  S             1.00      3 S               2
                        (     -19.423 eV)
    30      30       --         0.229 au  S             1.00      4 S               2
                        (       6.231 eV)
    31      31       --         2.114 au  S             1.00      5 S               2
                        (      57.513 eV)
    32      32       --        12.773 au  S             1.00      6 S               2
                        (     347.565 eV)
    33      33       --       192.883 au  S             1.00      7 S               2
                        (    5248.605 eV)
    34      34      2.000      -5.999 au  S             1.00      1 P:x             2
                        (    -163.247 eV)
    35      35      1.333      -0.278 au  S             1.00      2 P:x             2
                        (      -7.578 eV)
    36      36       --         0.156 au  S             1.00      3 P:x             2
                        (       4.258 eV)
    37      37       --         1.281 au  S             1.00      4 P:x             2
                        (      34.854 eV)
    38      38       --        13.224 au  S             1.00      5 P:x             2
                        (     359.833 eV)
    39      39      2.000      -5.999 au  S             1.00      1 P:y             2
                        (    -163.247 eV)
    40      40      1.333      -0.278 au  S             1.00      2 P:y             2
                        (      -7.578 eV)
    41      41       --         0.156 au  S             1.00      3 P:y             2
                        (       4.258 eV)
    42      42       --         1.281 au  S             1.00      4 P:y             2
                        (      34.854 eV)
    43      43       --        13.224 au  S             1.00      5 P:y             2
                        (     359.833 eV)
    44      44      2.000      -5.999 au  S             1.00      1 P:z             2
                        (    -163.247 eV)
    45      45      1.333      -0.278 au  S             1.00      2 P:z             2
                        (      -7.578 eV)
    46      46       --         0.156 au  S             1.00      3 P:z             2
                        (       4.258 eV)
    47      47       --         1.281 au  S             1.00      4 P:z             2
                        (      34.854 eV)
    48      48       --        13.224 au  S             1.00      5 P:z             2
                        (     359.833 eV)
    49      49       --         0.493 au  S             1.00      1 D:z2            2
                        (      13.420 eV)
    50      50       --         0.493 au  S             1.00      1 D:x2-y2         2
                        (      13.420 eV)
    51      51       --         0.493 au  S             1.00      1 D:xy            2
                        (      13.420 eV)
    52      52       --         0.493 au  S             1.00      1 D:xz            2
                        (      13.420 eV)
    53      53       --         0.493 au  S             1.00      1 D:yz            2
                        (      13.420 eV)
    54      54       --         1.337 au  S             1.00      1 F:z3            2
                        (      36.374 eV)
    55      55       --         1.337 au  S             1.00      1 F:z             2
                        (      36.374 eV)
    56      56       --         1.337 au  S             1.00      1 F:xyz           2
                        (      36.374 eV)
    57      57       --         1.337 au  S             1.00      1 F:z2x           2
                        (      36.374 eV)
    58      58       --         1.337 au  S             1.00      1 F:z2y           2
                        (      36.374 eV)
    59      59       --         1.337 au  S             1.00      1 F:x             2
                        (      36.374 eV)
    60      60       --         1.337 au  S             1.00      1 F:y             2
                        (      36.374 eV)
    61      61      2.000     -10.410 au  C             1.00      1 S               3
                        (    -283.268 eV)
    62      62      2.000      -0.583 au  C             1.00      2 S               3
                        (     -15.871 eV)
    63      63       --         0.414 au  C             1.00      3 S               3
                        (      11.266 eV)
    64      64       --         5.548 au  C             1.00      4 S               3
                        (     150.975 eV)
    65      65       --        50.362 au  C             1.00      5 S               3
                        (    1370.412 eV)
    66      66      0.667      -0.185 au  C             1.00      1 P:x             3
                        (      -5.048 eV)
    67      67       --         0.203 au  C             1.00      2 P:x             3
                        (       5.519 eV)
    68      68       --         2.124 au  C             1.00      3 P:x             3
                        (      57.805 eV)
    69      69      0.667      -0.185 au  C             1.00      1 P:y             3
                        (      -5.048 eV)
    70      70       --         0.203 au  C             1.00      2 P:y             3
                        (       5.519 eV)
    71      71       --         2.124 au  C             1.00      3 P:y             3
                        (      57.805 eV)
    72      72      0.667      -0.185 au  C             1.00      1 P:z             3
                        (      -5.048 eV)
    73      73       --         0.203 au  C             1.00      2 P:z             3
                        (       5.519 eV)
    74      74       --         2.124 au  C             1.00      3 P:z             3
                        (      57.805 eV)
    75      75       --         1.300 au  C             1.00      1 D:z2            3
                        (      35.364 eV)
    76      76       --         1.300 au  C             1.00      1 D:x2-y2         3
                        (      35.364 eV)
    77      77       --         1.300 au  C             1.00      1 D:xy            3
                        (      35.364 eV)
    78      78       --         1.300 au  C             1.00      1 D:xz            3
                        (      35.364 eV)
    79      79       --         1.300 au  C             1.00      1 D:yz            3
                        (      35.364 eV)
    80      80       --         4.096 au  C             1.00      1 F:z3            3
                        (     111.471 eV)
    81      81       --         4.096 au  C             1.00      1 F:z             3
                        (     111.471 eV)
    82      82       --         4.096 au  C             1.00      1 F:xyz           3
                        (     111.471 eV)
    83      83       --         4.096 au  C             1.00      1 F:z2x           3
                        (     111.471 eV)
    84      84       --         4.096 au  C             1.00      1 F:z2y           3
                        (     111.471 eV)
    85      85       --         4.096 au  C             1.00      1 F:x             3
                        (     111.471 eV)
    86      86       --         4.096 au  C             1.00      1 F:y             3
                        (     111.471 eV)
    87      87      2.000     -10.410 au  C             1.00      1 S               4
                        (    -283.268 eV)
    88      88      2.000      -0.583 au  C             1.00      2 S               4
                        (     -15.871 eV)
    89      89       --         0.414 au  C             1.00      3 S               4
                        (      11.266 eV)
    90      90       --         5.548 au  C             1.00      4 S               4
                        (     150.975 eV)
    91      91       --        50.362 au  C             1.00      5 S               4
                        (    1370.412 eV)
    92      92      0.667      -0.185 au  C             1.00      1 P:x             4
                        (      -5.048 eV)
    93      93       --         0.203 au  C             1.00      2 P:x             4
                        (       5.519 eV)
    94      94       --         2.124 au  C             1.00      3 P:x             4
                        (      57.805 eV)
    95      95      0.667      -0.185 au  C             1.00      1 P:y             4
                        (      -5.048 eV)
    96      96       --         0.203 au  C             1.00      2 P:y             4
                        (       5.519 eV)
    97      97       --         2.124 au  C             1.00      3 P:y             4
                        (      57.805 eV)
    98      98      0.667      -0.185 au  C             1.00      1 P:z             4
                        (      -5.048 eV)
    99      99       --         0.203 au  C             1.00      2 P:z             4
                        (       5.519 eV)
   100     100       --         2.124 au  C             1.00      3 P:z             4
                        (      57.805 eV)
   101     101       --         1.300 au  C             1.00      1 D:z2            4
                        (      35.364 eV)
   102     102       --         1.300 au  C             1.00      1 D:x2-y2         4
                        (      35.364 eV)
   103     103       --         1.300 au  C             1.00      1 D:xy            4
                        (      35.364 eV)
   104     104       --         1.300 au  C             1.00      1 D:xz            4
                        (      35.364 eV)
   105     105       --         1.300 au  C             1.00      1 D:yz            4
                        (      35.364 eV)
   106     106       --         4.096 au  C             1.00      1 F:z3            4
                        (     111.471 eV)
   107     107       --         4.096 au  C             1.00      1 F:z             4
                        (     111.471 eV)
   108     108       --         4.096 au  C             1.00      1 F:xyz           4
                        (     111.471 eV)
   109     109       --         4.096 au  C             1.00      1 F:z2x           4
                        (     111.471 eV)
   110     110       --         4.096 au  C             1.00      1 F:z2y           4
                        (     111.471 eV)
   111     111       --         4.096 au  C             1.00      1 F:x             4
                        (     111.471 eV)
   112     112       --         4.096 au  C             1.00      1 F:y             4
                        (     111.471 eV)
   113     113      1.000      -0.242 au  H             1.00      1 S               5
                        (      -6.582 eV)
   114     114       --         0.113 au  H             1.00      2 S               5
                        (       3.073 eV)
   115     115       --         1.599 au  H             1.00      3 S               5
                        (      43.500 eV)
   116     116       --         0.445 au  H             1.00      1 P:x             5
                        (      12.103 eV)
   117     117       --         0.445 au  H             1.00      1 P:y             5
                        (      12.103 eV)
   118     118       --         0.445 au  H             1.00      1 P:z             5
                        (      12.103 eV)
   119     119       --         2.628 au  H             1.00      1 D:z2            5
                        (      71.505 eV)
   120     120       --         2.628 au  H             1.00      1 D:x2-y2         5
                        (      71.505 eV)
   121     121       --         2.628 au  H             1.00      1 D:xy            5
                        (      71.505 eV)
   122     122       --         2.628 au  H             1.00      1 D:xz            5
                        (      71.505 eV)
   123     123       --         2.628 au  H             1.00      1 D:yz            5
                        (      71.505 eV)
   124     124      1.000      -0.242 au  H             1.00      1 S               6
                        (      -6.582 eV)
   125     125       --         0.113 au  H             1.00      2 S               6
                        (       3.073 eV)
   126     126       --         1.599 au  H             1.00      3 S               6
                        (      43.500 eV)
   127     127       --         0.445 au  H             1.00      1 P:x             6
                        (      12.103 eV)
   128     128       --         0.445 au  H             1.00      1 P:y             6
                        (      12.103 eV)
   129     129       --         0.445 au  H             1.00      1 P:z             6
                        (      12.103 eV)
   130     130       --         2.628 au  H             1.00      1 D:z2            6
                        (      71.505 eV)
   131     131       --         2.628 au  H             1.00      1 D:x2-y2         6
                        (      71.505 eV)
   132     132       --         2.628 au  H             1.00      1 D:xy            6
                        (      71.505 eV)
   133     133       --         2.628 au  H             1.00      1 D:xz            6
                        (      71.505 eV)
   134     134       --         2.628 au  H             1.00      1 D:yz            6
                        (      71.505 eV)
   135     135      1.000      -0.242 au  H             1.00      1 S               7
                        (      -6.582 eV)
   136     136       --         0.113 au  H             1.00      2 S               7
                        (       3.073 eV)
   137     137       --         1.599 au  H             1.00      3 S               7
                        (      43.500 eV)
   138     138       --         0.445 au  H             1.00      1 P:x             7
                        (      12.103 eV)
   139     139       --         0.445 au  H             1.00      1 P:y             7
                        (      12.103 eV)
   140     140       --         0.445 au  H             1.00      1 P:z             7
                        (      12.103 eV)
   141     141       --         2.628 au  H             1.00      1 D:z2            7
                        (      71.505 eV)
   142     142       --         2.628 au  H             1.00      1 D:x2-y2         7
                        (      71.505 eV)
   143     143       --         2.628 au  H             1.00      1 D:xy            7
                        (      71.505 eV)
   144     144       --         2.628 au  H             1.00      1 D:xz            7
                        (      71.505 eV)
   145     145       --         2.628 au  H             1.00      1 D:yz            7
                        (      71.505 eV)
   146     146      1.000      -0.242 au  H             1.00      1 S               8
                        (      -6.582 eV)
   147     147       --         0.113 au  H             1.00      2 S               8
                        (       3.073 eV)
   148     148       --         1.599 au  H             1.00      3 S               8
                        (      43.500 eV)
   149     149       --         0.445 au  H             1.00      1 P:x             8
                        (      12.103 eV)
   150     150       --         0.445 au  H             1.00      1 P:y             8
                        (      12.103 eV)
   151     151       --         0.445 au  H             1.00      1 P:z             8
                        (      12.103 eV)
   152     152       --         2.628 au  H             1.00      1 D:z2            8
                        (      71.505 eV)
   153     153       --         2.628 au  H             1.00      1 D:x2-y2         8
                        (      71.505 eV)
   154     154       --         2.628 au  H             1.00      1 D:xy            8
                        (      71.505 eV)
   155     155       --         2.628 au  H             1.00      1 D:xz            8
                        (      71.505 eV)
   156     156       --         2.628 au  H             1.00      1 D:yz            8
                        (      71.505 eV)
   157     157      1.000      -0.242 au  H             1.00      1 S               9
                        (      -6.582 eV)
   158     158       --         0.113 au  H             1.00      2 S               9
                        (       3.073 eV)
   159     159       --         1.599 au  H             1.00      3 S               9
                        (      43.500 eV)
   160     160       --         0.445 au  H             1.00      1 P:x             9
                        (      12.103 eV)
   161     161       --         0.445 au  H             1.00      1 P:y             9
                        (      12.103 eV)
   162     162       --         0.445 au  H             1.00      1 P:z             9
                        (      12.103 eV)
   163     163       --         2.628 au  H             1.00      1 D:z2            9
                        (      71.505 eV)
   164     164       --         2.628 au  H             1.00      1 D:x2-y2         9
                        (      71.505 eV)
   165     165       --         2.628 au  H             1.00      1 D:xy            9
                        (      71.505 eV)
   166     166       --         2.628 au  H             1.00      1 D:xz            9
                        (      71.505 eV)
   167     167       --         2.628 au  H             1.00      1 D:yz            9
                        (      71.505 eV)
   168     168      1.000      -0.242 au  H             1.00      1 S              10
                        (      -6.582 eV)
   169     169       --         0.113 au  H             1.00      2 S              10
                        (       3.073 eV)
   170     170       --         1.599 au  H             1.00      3 S              10
                        (      43.500 eV)
   171     171       --         0.445 au  H             1.00      1 P:x            10
                        (      12.103 eV)
   172     172       --         0.445 au  H             1.00      1 P:y            10
                        (      12.103 eV)
   173     173       --         0.445 au  H             1.00      1 P:z            10
                        (      12.103 eV)
   174     174       --         2.628 au  H             1.00      1 D:z2           10
                        (      71.505 eV)
   175     175       --         2.628 au  H             1.00      1 D:x2-y2        10
                        (      71.505 eV)
   176     176       --         2.628 au  H             1.00      1 D:xy           10
                        (      71.505 eV)
   177     177       --         2.628 au  H             1.00      1 D:xz           10
                        (      71.505 eV)
   178     178       --         2.628 au  H             1.00      1 D:yz           10
                        (      71.505 eV)



 ================================
 (Slater-type)  F U N C T I O N S  ***  (Basis and Fit)  ***
 ================================
  

 Atom Type    1  (O)
 ==============

 Valence Basis Sets:  10
 -----------------------
   1 S    9.800000
   1 S    6.800000
   2 S    7.580000
   2 S    2.880000
   2 S    1.720000
   2 P    4.080000
   2 P    2.080000
   2 P    1.120000
   3 D    2.000000
   4 F    3.000000

 Charge Fitting Sets (for the computation of the Coulomb Potential):  22
 -----------------------------------------------------------------------
   1 S   19.600000
   2 S   22.600000
   2 S   15.680000
   2 S   10.890000
   2 S    7.560000
   3 S    7.690000
   3 S    5.650000
   3 S    4.150000
   3 S    3.050000
   3 S    2.240000
   2 P   12.860000
   2 P    7.680000
   3 P    6.780000
   3 P    4.390000
   3 P    2.840000
   3 D    8.800000
   3 D    5.580000
   3 D    3.530000
   3 D    2.240000
   4 F    6.200000
   4 F    3.700000
   5 G    4.500000

 Atom Type    2  (S)
 ==============

 Valence Basis Sets:  14
 -----------------------
   1 S   19.400000
   1 S   14.350000
   2 S    5.900000
   2 S    4.250000
   2 P    8.050000
   2 P    4.550000
   3 S    3.450000
   3 S    2.250000
   3 S    1.500000
   3 P    2.650000
   3 P    1.600000
   3 P    1.000000
   3 D    2.100000
   4 F    2.100000

 Charge Fitting Sets (for the computation of the Coulomb Potential):  30
 -----------------------------------------------------------------------
   1 S   38.800000
   1 S   23.350000
   2 S   26.020000
   2 S   17.570000
   3 S   17.420000
   3 S   12.500000
   3 S    8.980000
   4 S    8.520000
   4 S    6.360000
   4 S    4.750000
   5 S    4.420000
   5 S    3.390000
   5 S    2.600000
   5 S    2.000000
   2 P   27.450000
   3 P   20.250000
   4 P   14.920000
   4 P    8.780000
   5 P    6.520000
   5 P    4.040000
   5 P    2.500000
   3 D   20.900000
   4 D   14.560000
   4 D    8.130000
   5 D    5.740000
   5 D    3.390000
   5 D    2.000000
   4 F    5.000000
   4 F    3.000000
   5 G    3.620000

 Atom Type    3  (C)
 ==============

 Valence Basis Sets:  10
 -----------------------
   1 S    7.680000
   1 S    5.000000
   2 S    1.280000
   2 S    2.100000
   2 S    4.600000
   2 P    0.820000
   2 P    1.480000
   2 P    2.940000
   3 D    2.200000
   4 F    3.300000

 Charge Fitting Sets (for the computation of the Coulomb Potential):  22
 -----------------------------------------------------------------------
   1 S   15.360000
   2 S   17.530000
   2 S   12.070000
   2 S    8.310000
   2 S    5.730000
   3 S    5.780000
   3 S    4.220000
   3 S    3.080000
   3 S    2.250000
   3 S    1.640000
   2 P    9.880000
   2 P    5.800000
   3 P    5.050000
   3 P    3.230000
   3 P    2.060000
   3 D    7.200000
   3 D    4.400000
   3 D    2.690000
   3 D    1.640000
   4 F    5.400000
   4 F    3.550000
   5 G    4.500000

 Atom Type    4  (H)
 ==============

 Valence Basis Sets:   5
 -----------------------
   1 S    0.690000
   1 S    0.920000
   1 S    1.580000
   2 P    1.250000
   3 D    2.500000

 Charge Fitting Sets (for the computation of the Coulomb Potential):  11
 -----------------------------------------------------------------------
   1 S    3.160000
   1 S    2.090000
   1 S    1.380000
   2 S    1.500000
   2 P    4.000000
   2 P    2.650000
   2 P    1.750000
   3 D    4.000000
   3 D    2.500000
   4 F    3.000000
   5 G    4.000000


 BAS: List of all Elementary Cartesian Basis Functions
 =====================================================

 The numbering in the list below (to the right of the function characteristics) is referred
 to in print-outs of MO eigenvectors and Mulliken populations in the BAS representation
 (as contrasted to the SFO representation).

 Notes:
 1. The functions are characterized by a polynomial prefactor (powers of x,y,z and r) and
    an exponential decay factor alpha.
 2. Since the basis sets are specific for an atom TYPE, the individual functions occur on
    all atoms of that type.
 3. The word 'Core' in the left margin signals that it is a Core Function (CF) : not a
    degree of freedom in the valence set, but only used to ensure orthogonalization of
    the other valence basis functions on the frozen Core Orbitals.


 (power of) X  Y  Z  R     Alpha  on Atom
            ==========     =====     ==========

 O                                    1
                                  ---------------------------------------------------------------------------
            0  0  0  0     9.800      1
            0  0  0  0     6.800      2
            0  0  0  1     7.580      3
            0  0  0  1     2.880      4
            0  0  0  1     1.720      5
            1  0  0  0     4.080      6
            0  1  0  0     4.080      7
            0  0  1  0     4.080      8
            1  0  0  0     2.080      9
            0  1  0  0     2.080     10
            0  0  1  0     2.080     11
            1  0  0  0     1.120     12
            0  1  0  0     1.120     13
            0  0  1  0     1.120     14
            2  0  0  0     2.000     15
            1  1  0  0     2.000     16
            1  0  1  0     2.000     17
            0  2  0  0     2.000     18
            0  1  1  0     2.000     19
            0  0  2  0     2.000     20
            3  0  0  0     3.000     21
            2  1  0  0     3.000     22
            2  0  1  0     3.000     23
            1  2  0  0     3.000     24
            1  1  1  0     3.000     25
            1  0  2  0     3.000     26
            0  3  0  0     3.000     27
            0  2  1  0     3.000     28
            0  1  2  0     3.000     29
            0  0  3  0     3.000     30

 S                                    2
                                  ---------------------------------------------------------------------------
            0  0  0  0    19.400     31
            0  0  0  0    14.350     32
            0  0  0  1     5.900     33
            0  0  0  1     4.250     34
            1  0  0  0     8.050     35
            0  1  0  0     8.050     36
            0  0  1  0     8.050     37
            1  0  0  0     4.550     38
            0  1  0  0     4.550     39
            0  0  1  0     4.550     40
            0  0  0  2     3.450     41
            0  0  0  2     2.250     42
            0  0  0  2     1.500     43
            1  0  0  1     2.650     44
            0  1  0  1     2.650     45
            0  0  1  1     2.650     46
            1  0  0  1     1.600     47
            0  1  0  1     1.600     48
            0  0  1  1     1.600     49
            1  0  0  1     1.000     50
            0  1  0  1     1.000     51
            0  0  1  1     1.000     52
            2  0  0  0     2.100     53
            1  1  0  0     2.100     54
            1  0  1  0     2.100     55
            0  2  0  0     2.100     56
            0  1  1  0     2.100     57
            0  0  2  0     2.100     58
            3  0  0  0     2.100     59
            2  1  0  0     2.100     60
            2  0  1  0     2.100     61
            1  2  0  0     2.100     62
            1  1  1  0     2.100     63
            1  0  2  0     2.100     64
            0  3  0  0     2.100     65
            0  2  1  0     2.100     66
            0  1  2  0     2.100     67
            0  0  3  0     2.100     68

 C                                    3    4
                                  ---------------------------------------------------------------------------
            0  0  0  0     7.680     69   99
            0  0  0  0     5.000     70  100
            0  0  0  1     1.280     71  101
            0  0  0  1     2.100     72  102
            0  0  0  1     4.600     73  103
            1  0  0  0     0.820     74  104
            0  1  0  0     0.820     75  105
            0  0  1  0     0.820     76  106
            1  0  0  0     1.480     77  107
            0  1  0  0     1.480     78  108
            0  0  1  0     1.480     79  109
            1  0  0  0     2.940     80  110
            0  1  0  0     2.940     81  111
            0  0  1  0     2.940     82  112
            2  0  0  0     2.200     83  113
            1  1  0  0     2.200     84  114
            1  0  1  0     2.200     85  115
            0  2  0  0     2.200     86  116
            0  1  1  0     2.200     87  117
            0  0  2  0     2.200     88  118
            3  0  0  0     3.300     89  119
            2  1  0  0     3.300     90  120
            2  0  1  0     3.300     91  121
            1  2  0  0     3.300     92  122
            1  1  1  0     3.300     93  123
            1  0  2  0     3.300     94  124
            0  3  0  0     3.300     95  125
            0  2  1  0     3.300     96  126
            0  1  2  0     3.300     97  127
            0  0  3  0     3.300     98  128

 H                                    5    6    7    8    9   10
                                  ---------------------------------------------------------------------------
            0  0  0  0     0.690    129  141  153  165  177  189
            0  0  0  0     0.920    130  142  154  166  178  190
            0  0  0  0     1.580    131  143  155  167  179  191
            1  0  0  0     1.250    132  144  156  168  180  192
            0  1  0  0     1.250    133  145  157  169  181  193
            0  0  1  0     1.250    134  146  158  170  182  194
            2  0  0  0     2.500    135  147  159  171  183  195
            1  1  0  0     2.500    136  148  160  172  184  196
            1  0  1  0     2.500    137  149  161  173  185  197
            0  2  0  0     2.500    138  150  162  174  186  198
            0  1  1  0     2.500    139  151  163  175  187  199
            0  0  2  0     2.500    140  152  164  176  188  200

 Total number of charge fitting functions (nprimf)       658
 Total number of Cartesian basis functions (naos)        200
 Total number of Cartesian core functions  (ncos)          0

 ***************************************************************************************************



                                              ***********************
                                              *  T E C H N I C A L  *
                                              ***********************
  



 =============================================================
 P A R A L L E L I Z A T I O N  and  V E C T O R I Z A T I O N
 =============================================================
  
 Nr of parallel processes:                                4
 Maximum vector length in NumInt loops:                 128



 =====================
 S C F   U P D A T E S
 =====================
  
 Max. nr. of cycles:                               300
 Convergence criterion:                              0.0000010000
   secondary criterion:                              0.0010000000

 Mix parameter (when DIIS does not apply):           0.2000000000
 Mixed ADIIS+SDIIS will be used                  
    Max number of expansion vectors:                10
    Pure ADIIS when Max([F,P]) is above              0.1000000000
    Pure SDIIS when Max([F,P]) is below              0.0010000000
 Automatic ElectronSmearing (in case of problematic SCF convergence) disabled



 =================
 P R E C I S I O N  ***  (General: NumInt, NeglectFunctionTails, ...)  ***
 =================
  

 NumInt:           Target precision:                 6.0000000000
 -------           Initial precision:                6.0000000000
                   Min. precision (optimization):    6.0000000000

 Neglect Functions:          Basis functions:        0.1000000000E-07
 ------------------          Fit functions:          0.1000000000E-07



 ===========================
 L I N E A R   S C A L I N G
 ===========================
  

 Cut-off radii density fit:                        0.1000000000E-09
 Overlap cut-off criterion AO matrix elements:     0.1000000000E-07
 Cut-offs for Coulomb potential and fitted density:0.1000000000E-09
 Cut-off criterion for Coulomb multipole terms:    0.1000000000E-09
 Progressive Convergence parameter:                 0.000000000    
 ***************************************************************************************************



                                            ***************************
                                            *  C O M P U T A T I O N  *
                                            ***************************
  

 Number of elements of the density matrix on this node (used, total):      5460     20100



 ===========================================
 Numerical Integration : Fuzzy Cells (Becke)
 ===========================================
  
 Becke grid quality: GOOD           
  
 Lebedev angular grid order:             min:  11 max:  31
 Nr. of radial points:                   min:  54 max:  72

 Total nr. of points:     124859
 Nr. of blocks:              976
 Block length:               128
 Nr. of dummy points:         69


 Test of Precision of the Numerical Integration Grid
 ===================================================

 Integral of the Total Core Density:                   0.00000000000000



 ========================
 Density Fitting (zlmFit)
 ========================
  
 ZlmFit Fit Quality: GOOD           
  
 Max L-expansion:                        min:   8 max:   9
 Nr. of radial interpolation points:     min:  78 max: 108



 ======================
 RI Hartree-Fock Scheme
 ======================
  
 Fit Set Quality     : GOOD
 Threshold Quality   : GOOD
 Integration Quality : GOOD
 Fit Generation Method : AUTO
 Response Quality    : DEFAULT
 Is Range Separated  :  F
 
 RIHartreeFock Dependency: number of modified vectors: 8



 =====
 S C F  ***  ScaSCF  ***
 =====
  
 Initial density matrix is calculated as sum of fragments

 CYCLE    1
 SCF Error: norm([F,P])=      5.265573757461, max([F,P])=      1.264932538232
 orbitals (Q,E):
 ---------------
 A :12...31          ( 2.00    -0.7538)  ( 2.00    -0.6115)  ( 2.00    -0.6071)  ( 2.00    -0.5925)
                     ( 2.00    -0.5624)  ( 2.00    -0.5506)  ( 2.00    -0.5218)  ( 2.00    -0.4858)
                     ( 2.00    -0.4277)  ( 2.00    -0.3349)  ( 0.00    -0.0633)  ( 0.00    -0.0619)
                     ( 0.00    -0.0534)  ( 0.00    -0.0335)  ( 0.00     0.0006)  ( 0.00     0.0015)
                     ( 0.00     0.0021)  ( 0.00     0.0401)  ( 0.00     0.0525)  ( 0.00     0.0867)

 CYCLE    2
   MIX coefficients:  0.8000  0.2000
 SCF Error: norm([F,P])=      1.066814599089, max([F,P])=      0.226468725568
 orbitals (Q,E):
 ---------------
 A :12...22          ( 2.00    -0.7144)  ( 2.00    -0.5722)  ( 2.00    -0.5622)  ( 2.00    -0.5543)
                     ( 2.00    -0.5212)  ( 2.00    -0.4954)  ( 2.00    -0.4820)  ( 2.00    -0.4338)
                     ( 2.00    -0.3621)  ( 2.00    -0.3022)  ( 0.00    -0.0382)

 CYCLE    3
  SDIIS (wt  0.000): -0.9080  1.9080
 A-DIIS (wt  1.000):  0.0000  1.0000
  DIIS coefficients:  0.0000  1.0000
 SCF Error: norm([F,P])=      0.533156584590, max([F,P])=      0.105109705045
 orbitals (Q,E):
 ---------------
 A :12...22          ( 2.00    -0.5864)  ( 2.00    -0.4545)  ( 2.00    -0.4418)  ( 2.00    -0.4324)
                     ( 2.00    -0.3960)  ( 2.00    -0.3653)  ( 2.00    -0.3639)  ( 2.00    -0.3169)
                     ( 2.00    -0.2024)  ( 2.00    -0.1768)  ( 0.00     0.0213)

 CYCLE    4
  SDIIS (wt  0.000):  0.1891  0.3443  0.4666
 A-DIIS (wt  1.000):  0.0000  0.6557  0.3443
  DIIS coefficients:  0.0000  0.6557  0.3443
 SCF Error: norm([F,P])=      0.819141376224, max([F,P])=      0.200364217932
 orbitals (Q,E):
 ---------------
 A :12...22          ( 2.00    -0.6115)  ( 2.00    -0.4778)  ( 2.00    -0.4656)  ( 2.00    -0.4647)
                     ( 2.00    -0.4266)  ( 2.00    -0.4106)  ( 2.00    -0.3942)  ( 2.00    -0.3639)
                     ( 2.00    -0.2828)  ( 2.00    -0.2405)  ( 0.00     0.0162)

 CYCLE    5
  SDIIS (wt  0.679): -0.0430  0.3896  0.1636  0.4898
 A-DIIS (wt  0.321):  0.0000  0.0000  0.0000  1.0000
  DIIS coefficients: -0.0292  0.2647  0.1111  0.6534
 SCF Error: norm([F,P])=      0.147703399160, max([F,P])=      0.032748129670
 orbitals (Q,E):
 ---------------
 A :12...22          ( 2.00    -0.6283)  ( 2.00    -0.4988)  ( 2.00    -0.4868)  ( 2.00    -0.4844)
                     ( 2.00    -0.4530)  ( 2.00    -0.4181)  ( 2.00    -0.4162)  ( 2.00    -0.3662)
                     ( 2.00    -0.2825)  ( 2.00    -0.2413)  ( 0.00     0.0091)

 CYCLE    6
  SDIIS (wt  0.843):  0.0074  0.0481  0.0140  0.3931  0.5374
 A-DIIS (wt  0.157):  0.0000  0.0000  0.0000  0.2678  0.7322
  DIIS coefficients:  0.0063  0.0406  0.0118  0.3734  0.5679
 SCF Error: norm([F,P])=      0.089986881375, max([F,P])=      0.016536796018
 orbitals (Q,E):
 ---------------
 A :12...22          ( 2.00    -0.6252)  ( 2.00    -0.4927)  ( 2.00    -0.4809)  ( 2.00    -0.4793)
                     ( 2.00    -0.4444)  ( 2.00    -0.4194)  ( 2.00    -0.4116)  ( 2.00    -0.3704)
                     ( 2.00    -0.2887)  ( 2.00    -0.2467)  ( 0.00     0.0116)

 CYCLE    7
  SDIIS (wt  0.973): -0.0028  0.0051 -0.0029  0.1045  0.2363  0.6598
 A-DIIS (wt  0.027):  0.0000  0.0000  0.0000  0.0000  0.0000  1.0000
  DIIS coefficients: -0.0027  0.0049 -0.0028  0.1017  0.2299  0.6690
 SCF Error: norm([F,P])=      0.013862119987, max([F,P])=      0.003671881904
 orbitals (Q,E):
 ---------------
 A :12...22          ( 2.00    -0.6246)  ( 2.00    -0.4927)  ( 2.00    -0.4809)  ( 2.00    -0.4790)
                     ( 2.00    -0.4450)  ( 2.00    -0.4181)  ( 2.00    -0.4115)  ( 2.00    -0.3689)
                     ( 2.00    -0.2869)  ( 2.00    -0.2450)  ( 0.00     0.0114)

 CYCLE    8
  SDIIS (wt  1.000): -0.0009 -0.0011 -0.0013  0.0163  0.0525  0.2356  0.6990
  DIIS coefficients: -0.0009 -0.0011 -0.0013  0.0163  0.0525  0.2356  0.6990
 SCF Error: norm([F,P])=      0.001566340922, max([F,P])=      0.000287019173
 orbitals (Q,E):
 ---------------
 A :12...22          ( 2.00    -0.6248)  ( 2.00    -0.4928)  ( 2.00    -0.4810)  ( 2.00    -0.4792)
                     ( 2.00    -0.4451)  ( 2.00    -0.4183)  ( 2.00    -0.4116)  ( 2.00    -0.3692)
                     ( 2.00    -0.2872)  ( 2.00    -0.2453)  ( 0.00     0.0114)

 CYCLE    9
  SDIIS (wt  1.000): -0.0001 -0.0006 -0.0001 -0.0013  0.0030  0.0375  0.2513  0.7103
  DIIS coefficients: -0.0001 -0.0006 -0.0001 -0.0013  0.0030  0.0375  0.2513  0.7103
 SCF Error: norm([F,P])=      0.000413762895, max([F,P])=      0.000095374266
 orbitals (Q,E):
 ---------------
 A :12...22          ( 2.00    -0.6247)  ( 2.00    -0.4928)  ( 2.00    -0.4809)  ( 2.00    -0.4792)
                     ( 2.00    -0.4450)  ( 2.00    -0.4182)  ( 2.00    -0.4116)  ( 2.00    -0.3691)
                     ( 2.00    -0.2871)  ( 2.00    -0.2452)  ( 0.00     0.0114)

 CYCLE   10
  SDIIS (wt  1.000): -0.0000 -0.0001  0.0000 -0.0015 -0.0018 -0.0001  0.0456  0.2260  0.7319
  DIIS coefficients: -0.0000 -0.0001  0.0000 -0.0015 -0.0018 -0.0001  0.0456  0.2260  0.7319
 SCF Error: norm([F,P])=      0.000087296753, max([F,P])=      0.000015430300
 orbitals (Q,E):
 ---------------
 A :12...22          ( 2.00    -0.6247)  ( 2.00    -0.4928)  ( 2.00    -0.4809)  ( 2.00    -0.4792)
                     ( 2.00    -0.4450)  ( 2.00    -0.4182)  ( 2.00    -0.4116)  ( 2.00    -0.3691)
                     ( 2.00    -0.2871)  ( 2.00    -0.2452)  ( 0.00     0.0114)

 CYCLE   11
  SDIIS (wt  1.000): -0.0000  0.0000  0.0000 -0.0001 -0.0001 -0.0008 -0.0079 -0.0158  0.0170  1.0077
  DIIS coefficients: -0.0000  0.0000  0.0000 -0.0001 -0.0001 -0.0008 -0.0079 -0.0158  0.0170  1.0077
 SCF Error: norm([F,P])=      0.000010271379, max([F,P])=      0.000002505256
 orbitals (Q,E):
 ---------------
 A :12...22          ( 2.00    -0.6247)  ( 2.00    -0.4928)  ( 2.00    -0.4810)  ( 2.00    -0.4792)
                     ( 2.00    -0.4450)  ( 2.00    -0.4182)  ( 2.00    -0.4116)  ( 2.00    -0.3691)
                     ( 2.00    -0.2871)  ( 2.00    -0.2452)  ( 0.00     0.0114)

 CYCLE   12
  SDIIS (wt  1.000):  0.0000 -0.0000  0.0000  0.0000 -0.0001 -0.0018 -0.0072 -0.0077  0.1278  0.8889
  DIIS coefficients:  0.0000 -0.0000  0.0000  0.0000 -0.0001 -0.0018 -0.0072 -0.0077  0.1278  0.8889
 SCF Error: norm([F,P])=      0.000001832914, max([F,P])=      0.000000358874
 orbitals (Q,E):
 ---------------
 A :12...22          ( 2.00    -0.6247)  ( 2.00    -0.4928)  ( 2.00    -0.4810)  ( 2.00    -0.4792)
                     ( 2.00    -0.4450)  ( 2.00    -0.4182)  ( 2.00    -0.4116)  ( 2.00    -0.3691)
                     ( 2.00    -0.2871)  ( 2.00    -0.2452)  ( 0.00     0.0114)

 SCF CONVERGED

 CYCLE   13
 ***************************************************************************************************



                                                *******************
                                                *  R E S U L T S  *
                                                *******************
  
  
 Hartree-Fock exchange energy:  -45.8846393607511
 *** Using FIT density in Focky
  SDIIS (wt  1.000): -0.0000  0.0000  0.0000  0.0000  0.0001 -0.0003 -0.0010 -0.0156  0.1298  0.8871
  DIIS coefficients: -0.0000  0.0000  0.0000  0.0000  0.0001 -0.0003 -0.0010 -0.0156  0.1298  0.8871
 SCF Error: norm([F,P])=      0.000000324588, max([F,P])=      0.000000076264

 Orbital Energies, per Irrep and Spin:
 ======================================
                        Occup              E (au)              E (eV)       Diff (eV) with prev. cycle
                        -----      --------------------        ------       --------------------------
 A
              12        2.000     -0.62471162974612E+00       -16.999              -2.55E-07
              13        2.000     -0.49281187936413E+00       -13.410               1.77E-07
              14        2.000     -0.48095034382056E+00       -13.087              -3.08E-07
              15        2.000     -0.47916272696967E+00       -13.039              -1.09E-08
              16        2.000     -0.44503069110321E+00       -12.110               2.47E-07
              17        2.000     -0.41822233896544E+00       -11.380              -3.71E-07
              18        2.000     -0.41159986452642E+00       -11.200              -3.77E-08
              19        2.000     -0.36911030296754E+00       -10.044              -3.85E-07
              20        2.000     -0.28710127330867E+00        -7.812              -5.55E-07
              21        2.000     -0.24522741794261E+00        -6.673              -8.28E-07
              22        0.000      0.11442826827013E-01         0.311
              23        0.000      0.26053232107394E-01         0.709
              24        0.000      0.35759898320629E-01         0.973
              25        0.000      0.54856807309406E-01         1.493
              26        0.000      0.61161974930108E-01         1.664
              27        0.000      0.65646198829700E-01         1.786
              28        0.000      0.71988768266223E-01         1.959
              29        0.000      0.96976210338040E-01         2.639
              30        0.000      0.11476289392797E+00         3.123
              31        0.000      0.15682436030275E+00         4.267
  
 HOMO :       21 A                -0.24522741794261E+00
 LUMO :       22 A                 0.11442826827013E-01
  


 All Electron Calculation, thus no Orbital Energies of the Core Orbitals are calculated


 Fit test: (difference of exact and fit density, squared integrated, result summed over spins)
         Sum-of-Fragments:                             0.00000001022677
         Orthogonalized Fragments:                     0.00001600347841
         SCF:                                          0.00002589411569



 ==========================
 Electron Density at Nuclei
 ==========================
  
 The electron density is calculated at points on a small sphere around the center of a nucleus.
 The printed electron density is the average electron density on these points.
 The radius of the sphere is the printed approximate finite nuclear radius.
 Note: density is calculated in the Dirac picture

         Atom        Nuclear Radius (Angstrom)             Electron Density (a.u.)
         ----        -------------------------             -----------------------
     1)   O                 0.0000345546                              312.89422
     2)   S                 0.0000416234                             2729.15476
     3)   C                 0.0000320678                              126.44507
     4)   C                 0.0000320678                              126.44507
     5)   H                 0.0000181514                                0.48504
     6)   H                 0.0000181514                                0.48432
     7)   H                 0.0000181514                                0.48442
     8)   H                 0.0000181514                                0.48504
     9)   H                 0.0000181514                                0.48442
    10)   H                 0.0000181514                                0.48432



 =======================================
 M U L L I K E N   P O P U L A T I O N S
 =======================================
  
 The survey below gives for each atom:
 a) the total charge (Z minus electrons)
 b) the net spin polarization (nr of electrons spin-A minus spin-B)
 c) for each spin the atomic electron valence density (integrated) per L-value.

 Atom              Charge    Spin density          S         P         D         F
 ----              ------    ------------       ------    ------    ------    ------
 1 O              -0.6683                       3.8714    4.7451    0.0470    0.0048
 2 S               0.6098                       5.6715    9.2227    0.4281    0.0679
 3 C               0.4384                       2.9373    2.5840    0.0385    0.0018
 4 C               0.4384                       2.9373    2.5840    0.0385    0.0018
 5 H              -0.1466                       1.0672    0.0740    0.0055    0.0000
 6 H              -0.1431                       1.0625    0.0753    0.0053    0.0000
 7 H              -0.1195                       1.0396    0.0744    0.0055    0.0000
 8 H              -0.1466                       1.0672    0.0740    0.0055    0.0000
 9 H              -0.1195                       1.0396    0.0744    0.0055    0.0000
 10 H             -0.1431                       1.0625    0.0753    0.0053    0.0000

 Populations of individual BAS functions
 ----------------------------------------
 1 O            0.6691  1.2869  0.0154  1.0197  0.8803  0.2838  0.2944  0.2251  0.8912  0.8886
                0.7696  0.5461  0.5484  0.2979 -0.0053  0.0020  0.0127 -0.0029  0.0132  0.0273
               -0.0088 -0.0034 -0.0077 -0.0017  0.0005  0.0118 -0.0067 -0.0064  0.0113  0.0160
 2 S            0.5459  1.4129  1.5787  0.4441  0.7910  0.7989  0.7908  1.2100  1.2014  1.2102
                0.2173  1.1863  0.2864  0.3490  0.4700  0.3431  0.7195  0.9334  0.5173 -0.1218
                0.0460 -0.0362  0.0410  0.0393  0.1567  0.0260  0.1070  0.0582  0.0039  0.0134
                0.0006  0.0013  0.0111  0.0183 -0.0208  0.0021  0.0205  0.0175
 3 C            0.4852  1.5230  0.0969  0.8982 -0.0660 -0.1133 -0.0878 -0.1562  0.7911  0.8024
                0.8266  0.1669  0.1786  0.1757  0.0061  0.0072  0.0073  0.0073  0.0048  0.0058
                0.0015  0.0005  0.0010 -0.0005  0.0002 -0.0006  0.0006 -0.0005 -0.0005  0.0000
 4 C            0.4852  1.5230  0.0969  0.8982 -0.0660 -0.1133 -0.0878 -0.1562  0.7911  0.8024
                0.8266  0.1669  0.1786  0.1757  0.0061  0.0072  0.0073  0.0073  0.0048  0.0058
                0.0015  0.0005  0.0010 -0.0005  0.0002 -0.0006  0.0006 -0.0005 -0.0005  0.0000
 5 H            0.0309  0.7609  0.2754  0.0238  0.0213  0.0289 -0.0046  0.0001  0.0020 -0.0044
                0.0017  0.0108
 6 H            0.0408  0.7465  0.2752  0.0284  0.0217  0.0251  0.0081  0.0013  0.0013 -0.0034
                0.0004 -0.0024
 7 H           -0.0001  0.7581  0.2816  0.0214  0.0315  0.0215 -0.0044  0.0018  0.0001  0.0117
                0.0019 -0.0056
 8 H            0.0309  0.7609  0.2754  0.0238  0.0213  0.0289 -0.0046  0.0001  0.0020 -0.0044
                0.0017  0.0108
 9 H           -0.0001  0.7581  0.2816  0.0214  0.0315  0.0215 -0.0044  0.0018  0.0001  0.0117
                0.0019 -0.0056
 10 H           0.0408  0.7465  0.2752  0.0284  0.0217  0.0251  0.0081  0.0013  0.0013 -0.0034
                0.0004 -0.0024

 Gross Charges per Atom (Z minus electrons)
 ==========================================
            -0.6683    0.6098    0.4384    0.4384   -0.1466   -0.1431   -0.1195   -0.1466   -0.1195   -0.1431
 Net Total: -0.00000000


 Atom-Atom Population Matrix (off-diagonal elements not doubled)
 ===============================================================

     1 :     8.3700
     2 :     0.3749   14.5893
     3 :    -0.0436    0.2978    4.2895
     4 :    -0.0436    0.2978   -0.0322    4.2895
     5 :     0.0122   -0.0055    0.3062   -0.0044    0.9522
     6 :    -0.0051   -0.0444    0.3917    0.0016   -0.0615    0.9126
     7 :    -0.0018   -0.0350    0.3869   -0.0319   -0.0549   -0.0469    0.8891
     8 :     0.0122   -0.0055   -0.0044    0.3062   -0.0014   -0.0000    0.0036    0.9522
     9 :    -0.0018   -0.0350   -0.0319    0.3869    0.0036   -0.0006    0.0108   -0.0549    0.8891
    10 :    -0.0051   -0.0444    0.0016    0.3917   -0.0000   -0.0043   -0.0006   -0.0614   -0.0469    0.9126



 =================================================
 H I R S H F E L D   C H A R G E   A N A L Y S I S
 =================================================
  
 For each fragment: the (numerical) integral of rho(scf) * rho(fragment)/rho(sum-of-fragments)
 (nuclear charges are included, electrons are counted negative)

 The fragments and their ordering are defined in the early G E O M E T R Y output section.
 If you use single-atom fragments, this usually implies that all atoms of the same
 chemical type are grouped together. This may not be the order in which you listed them
 in the input file!

  Fragment                       Charge
 ------------------------------------------
    1  O                        -0.3847
    2  S                         0.3099
    3  C                        -0.1376
    4  C                        -0.1376
    5  H                         0.0550
    6  H                         0.0627
    7  H                         0.0573
    8  H                         0.0550
    9  H                         0.0573
   10  H                         0.0627

 Sum of these charges =         -0.00003891
 (accuracy NumInt/Tails)



 =============================
 V O R O N O I   C H A R G E S
 =============================
  
 For each atom: the (numerical) integral of the total electronic charge density in its Voronoi cell,
 i.e. the region of space that is closer to that atom than to any other atom.
 (cf. Wigner-Seitz cells in crystals)

 Within the Voronoi cell the subintegrals over the atomic sphere and the remaining part are evaluated
 separately to give the numbers of electrons (negative charge) in these regions.
 The net total charge in the cell (including the nuclear charge) is also given.

 Values are provided for
    a) the Initial (sum-of-fragments) density
    b) the Orthogonalized-Fragments density
    c) the SCF density
    d) the Voronoi Deformation Density (VDD): the difference SCF-Initial for the complete atomic cell

  Atom                Initial                    OrthFrag                   SCF
             Sphere RestCell NetTotal   Sphere RestCell NetTotal   Sphere RestCell NetTotal      VDD
 -------     ------------------------   ------------------------   ------------------------    -----
    1 O      -3.659   -4.819   -0.478   -3.842   -4.498   -0.340   -3.706   -5.201   -0.907   -0.429
    2 S     -10.049   -4.939    1.012  -10.132   -5.150    0.718  -10.027   -4.681    1.291    0.279
    3 C      -2.108   -2.538    1.354   -2.216   -2.779    1.005   -2.132   -2.642    1.225   -0.129
    4 C      -2.108   -2.538    1.354   -2.216   -2.779    1.005   -2.132   -2.642    1.225   -0.129
    5 H      -0.087   -1.457   -0.544   -0.111   -1.289   -0.400   -0.130   -1.350   -0.480    0.064
    6 H      -0.087   -1.457   -0.544   -0.110   -1.299   -0.409   -0.130   -1.337   -0.466    0.078
    7 H      -0.087   -1.453   -0.540   -0.112   -1.277   -0.389   -0.129   -1.345   -0.475    0.065
    8 H      -0.087   -1.450   -0.537   -0.111   -1.285   -0.396   -0.130   -1.346   -0.476    0.061
    9 H      -0.087   -1.447   -0.534   -0.112   -1.274   -0.385   -0.129   -1.342   -0.472    0.062
   10 H      -0.087   -1.457   -0.544   -0.110   -1.299   -0.409   -0.130   -1.337   -0.466    0.078
 ---------------------------------------------------------------------------------------------------
 Total NetCharge:              -0.000                     -0.000                     -0.000    0.000
 (accuracy NumInt/Tails)

 Remark: the 'NetTotal' Voronoi charges often do not match the Mulliken and/or Hirshfeld charges very
 well. This is caused by the fact that chemically different atoms are not treated in accordance with
 their relative sizes. (Voronoi cells are defined by boundary planes halfway between the atoms.)
 However, the CHANGES in charge, comparing 'Initial' to 'SCF' for instance, do give a fair indication
 of the flow of charge caused by the relaxation from sum-of-fragments to self-consistency.

 Warning: the absolute accuracy of the VDD charges obtained using the Fuzzy Cells (Becke) integration
 scheme is much poorer than the one obtained with an 'equivalent' Voronoi integration grid. 



 =================================================================
 M U L T I P O L E   D E R I V E D   C H A R G E   A N A L Y S I S
 =================================================================

 This charge analysis uses the atomic multipoles (obtained from the fitted density) up to some level X,
 and reconstructs these multipoles exactly (up to level X) by distributing charges over all atoms.
 This is achieved by using Lagrange multipliers and a weight function to keep the multipoles local.

 Dummy atoms can be included (by setting INCDUM in MDC-block to 1) to obtain a fractional charge.
 This is generally useful and necessary only for small symmetrical molecules, when there are not
 enough degrees of freedom to reconstruct the multipoles.

 Since the atomic multipoles are reconstructed up to level X,
 the molecular multipoles are represented also up to level X.
 The recommended level is to reconstruct up to quadrupole : -> MDC-q charges.

 See: M. Swart, P.Th. van Duijnen, J.G. Snijders, J.Comput.Chem., (2001), p. 79-88.

 ------------------------------------------------------------- 
 Atomic electronic multipole moments from SCF equations (a.u.)
 ------------------------------------------------------------- 

   atom        charge        dip-x     dip-y     dip-z      quad-xx   quad-xy   quad-xz   quad-yy   quad-yz   quad-zz
 --------------------------------------------------------------------------------------------------------------------
    1 O     -0.916520    -0.000000  0.112068 -0.121861    -0.227927  0.000000  0.000000 -0.405423 -0.147798  0.633350
    2 S      1.269350    -0.000000  1.035953 -0.311317     0.664999  0.000000 -0.000000 -1.642903  0.213664  0.977904
    3 C     -0.006246     0.312620  0.215727  0.167358    -0.094780 -0.182259 -0.139915 -0.066860 -0.102657  0.161640
    4 C     -0.006246    -0.312620  0.215727  0.167358    -0.094780  0.182259  0.139916 -0.066860 -0.102657  0.161640
    5 H     -0.064558     0.017444  0.012145  0.030313    -0.087472 -0.015215 -0.021417 -0.111425 -0.068053  0.198897
    6 H     -0.051502     0.042445  0.007796 -0.005518     0.121480 -0.080643 -0.083526 -0.084271  0.025444 -0.037209
    7 H     -0.054109     0.005780  0.025546 -0.002071    -0.085592 -0.033686 -0.001024  0.189978 -0.027859 -0.104386
    8 H     -0.064558    -0.017444  0.012145  0.030313    -0.087472  0.015215  0.021417 -0.111425 -0.068053  0.198897
    9 H     -0.054109    -0.005780  0.025546 -0.002071    -0.085592  0.033686  0.001024  0.189978 -0.027859 -0.104386
   10 H     -0.051501    -0.042445  0.007796 -0.005518     0.121480  0.080643  0.083526 -0.084272  0.025444 -0.037209

 --------------------------------------- 
 Multipole derived atomic charges (a.u.)
 --------------------------------------- 

 The MDC-m charges are just the Monopole terms in the multipole expansion, while for the MDC-d charges
 also the Dipoles are reconstructed. The usually preferred charges are the MDC-q charges.
 These reconstruct the Monopoles, Dipoles and Quadrupoles (both atomic AND molecular).

        Atom    Level:     MDC-m        MDC-d        MDC-q
 ---------------------------------------------------------
     1     O           -0.916520    -0.595934    -0.435474
     2     S            1.269350     0.454701     0.385117
     3     C           -0.006246    -0.100379    -0.842999
     4     C           -0.006246    -0.100379    -0.842998
     5     H           -0.064558    -0.002820     0.273103
     6     H           -0.051502     0.037830     0.304623
     7     H           -0.054109     0.135985     0.290450
     8     H           -0.064558    -0.002820     0.273103
     9     H           -0.054109     0.135985     0.290450
    10     H           -0.051501     0.037830     0.304623

 ------------------------------------------------ 
 Average absolute deviations in atomic multipoles
 ------------------------------------------------ 

 Stated here are the average differences between the atomic multipoles
 and the reconstructed atomic multipoles (from the distributed charges).
 If these values are not zero, this means there are not enough degrees of freedom,
 to be able to reconstruct the atomic multipoles. (This usually happens only
 for small and/or highly symmetric molecules). If this is the case, one could add
 dummy atoms as extra point charges (and setting INCDUM in MDC-block to 1).

 Level:                                 MDC-d        MDC-q
 ---------------------------------------------------------
 Charge   (a.u.)                       0.0000       0.0000
 Dipole   (Debye)                      0.0000       0.0000
 Quad.    (a.u.)                       0.2359       0.0000

 --------------------------------------- 
 Represented molecular multipole moments
 --------------------------------------- 

 Given here are the Molecular multipole moments from the atomic charges, and from the Fit Density.
 Note that the atomic charges represent the latter, NOT the ones from the Exact density.

            Q (a.u.)             Dipole moment (Debye)                                          Quadrupole moment (a.u.)
                                 x         y         z              xx        xy        xz        yy        yz        zz
------------------------------------------------------------------------------------------------------------------------
MDC-m         0.0000       -0.0000   -3.9106    4.3882         -5.2152    0.0000   -0.0000    2.9544   -8.6242    2.2608
MDC-d         0.0000       -0.0000    0.3352    4.2535         -2.2344    0.0000   -0.0000   -1.4582    0.4874    3.6926
MDC-q        -0.0000       -0.0000    0.3352    4.2535         -0.3431    0.0000   -0.0000   -5.2316    0.1526    5.5747
 
Fit.Dens.     0.0000       -0.0000    0.3352    4.2535         -0.3431    0.0000   -0.0000   -5.2316    0.0124    5.5747



 =============
 Dipole Moment  ***  (Debye)  ***
 =============
  
 Vector   :        -0.00000145      0.33634576      4.25487514
 Magnitude:         4.26814841

 This molecular dipole moment is calculated with analytic integration



 =========================================
 Quadrupole Moment (Buckingham convention)  ***  (a.u.)  ***
 =========================================
  
      quad-xx        quad-xy        quad-xz        quad-yy        quad-yz        quad-zz
     -0.34271625     0.00000145    -0.00000264    -5.23519311    -0.12579566     5.57790936

 This molecular quadrupole moment is calculated with analytic integration



 ===========================
 B O N D I N G   E N E R G Y  ***  (decomposition)  ***
 ===========================
  
*** IMPORTANT NOTE ***

The bond energy is computed as an energy difference between molecule and
fragments. In particular when the fragments are single atoms, they are usually
computed as SPHERICALLY SYMMETRIC and SPIN-RESTRICTED. Obviously, this usually
does NOT represent the true atomic groundstate.

To obtain the 'real' bond energy, (atomic) correction terms must be applied
for the true (multiplet) fragment ground state. See ref: E.J.Baerends,
V.Branchadell, M.Sodupe, Chem.Phys.Lett.265 (1997) 481

General theoretical background on the bond energy decomposition scheme used
here (Morokuma-Ziegler) can be found in the review paper:
F.M. Bickelhaupt and E.J. Baerends,
"Kohn-Sham Density Functional Theory: Predicting and Understanding Chemistry"
In: Rev. Comput. Chem.; Lipkowitz, K. B. and Boyd, D. B., Eds.;
Wiley-VCH: New York, 2000, Vol. 15, 1-86.

Symbols used in the Bickelhaupt-Baerends (BB) paper are given below to make
the direct connection to that paper, where detailed explanations can be found
on the meaning of the various terms.


                                                   hartree              eV         kcal/mol           kJ/mol
                                      --------------------     -----------       ----------      -----------
  pauli hf:                              0.512743741147876         13.9525           321.75          1346.21
  elstat hf:                            -0.856703648682918        -23.3121          -537.59         -2249.28

Pauli Repulsion
  Kinetic (Delta T^0):                  16.366933694896982        445.3669         10270.41         42971.38
  Delta V^Pauli Coulomb:                -8.230390815406999       -223.9603         -5164.65        -21608.89
  Delta V^Pauli Hybrid-X:               -1.417987267539367        -38.5854          -889.80         -3722.93
  Delta V^Pauli Hybrid-C:               -0.163561256489398         -4.4507          -102.64          -429.43
  Delta V^Pauli HF-Exchange:            -0.343959907535043         -9.3596          -215.84          -903.07
                                      --------------------     -----------       ----------      -----------
  Total Pauli Repulsion:                 6.211034447926176        169.0108          3897.48         16307.07
 (Total Pauli Repulsion =
  Delta E^Pauli in BB paper)

Steric Interaction
  Pauli Repulsion (Delta E^Pauli):       6.211034447926176        169.0108          3897.48         16307.07
  Electrostatic Interaction:            -1.330657627082334        -36.2090          -835.00         -3493.64
 (Electrostatic Interaction =
  Delta V_elstat in the BB paper)
[...]
                                    3.64%     1 P:z            -5.048  0.67     3 C
                                    3.64%     1 P:z            -5.048  0.67     4 C
                                    2.52%     3 S              43.500  0.00     5 H
                                    2.52%     3 S              43.500  0.00     8 H
                                    2.42%     2 P:x            -7.578  1.33     2 S
                                    2.37%     1 P:x            -5.048  0.67     4 C
                                    2.37%     1 P:x            -5.048  0.67     3 C
                                    1.59%     1 D:xy           13.420  0.00     2 S
                                   -1.48%     2 P:x             5.519  0.00     3 C
                                   -1.48%     2 P:x             5.519  0.00     4 C
                                    1.19%     2 S               3.073  0.00     6 H
                                    1.19%     2 S               3.073  0.00    10 H
                                    1.16%     3 S              43.500  0.00     6 H
                                    1.16%     3 S              43.500  0.00    10 H
       3.123  0.00    30 A         31.97%     1 S              -6.582  1.00     9 H
                                   31.97%     1 S              -6.582  1.00     7 H
                                   17.34%     2 S               3.073  0.00     7 H
                                   17.34%     2 S               3.073  0.00     9 H
                                  -16.37%     2 P:y             5.519  0.00     3 C
                                  -16.37%     2 P:y             5.519  0.00     4 C
                                    6.37%     1 S              -6.582  1.00     5 H
                                    6.37%     1 S              -6.582  1.00     8 H
                                    3.47%     2 P:x            -7.578  1.33     2 S
                                    3.44%     3 S              43.500  0.00     9 H
                                    3.44%     3 S              43.500  0.00     7 H
                                    2.16%     3 P:x             4.258  0.00     2 S
                                    2.12%     1 P:y            -5.048  0.67     3 C
                                    2.12%     1 P:y            -5.048  0.67     4 C
                                    1.16%     1 S              -6.582  1.00    10 H
                                    1.16%     1 S              -6.582  1.00     6 H
       4.267  0.00    31 A          9.23%     1 P:x            -5.048  0.67     3 C
                                    9.23%     1 P:x            -5.048  0.67     4 C
                                    8.96%     2 P:x             5.519  0.00     4 C
                                    8.96%     2 P:x             5.519  0.00     3 C
                                    8.53%     2 P:z             5.519  0.00     4 C
                                    8.53%     2 P:z             5.519  0.00     3 C
                                    7.93%     2 P:y             5.519  0.00     4 C
                                    7.93%     2 P:y             5.519  0.00     3 C
                                    7.12%     1 S              -6.582  1.00    10 H
                                    7.12%     1 S              -6.582  1.00     6 H
                                    3.32%     1 P:y            -5.048  0.67     4 C
                                    3.32%     1 P:y            -5.048  0.67     3 C
                                    3.02%     1 P:z            -5.048  0.67     3 C
                                    3.02%     1 P:z            -5.048  0.67     4 C
                                   -2.74%     3 P:z             4.258  0.00     2 S
                                    2.66%     2 P:y            -7.578  1.33     2 S
                                   -2.33%     3 S              43.500  0.00    10 H
                                   -2.33%     3 S              43.500  0.00     6 H
                                    2.21%     1 P:x            12.103  0.00     5 H
                                    2.21%     1 P:x            12.103  0.00     8 H
                                   -1.44%     2 S               3.073  0.00     9 H
                                   -1.44%     2 S               3.073  0.00     7 H
                                    1.09%     1 P:z            -9.955  1.33     1 O
                                   -1.03%     3 S              43.500  0.00     9 H
                                   -1.03%     3 S              43.500  0.00     7 H
                                    1.01%     1 D:yz           13.420  0.00     2 S
       4.534  0.00    32 A         19.01%     1 P:y            -5.048  0.67     3 C
                                   19.01%     1 P:y            -5.048  0.67     4 C
                                   17.35%     1 S              -6.582  1.00     7 H
                                   17.35%     1 S              -6.582  1.00     9 H
                                   11.19%     2 P:y             5.519  0.00     3 C
                                   11.19%     2 P:y             5.519  0.00     4 C
                                   10.13%     3 P:x             4.258  0.00     2 S
                                   -8.77%     2 S               3.073  0.00     9 H
                                   -8.77%     2 S               3.073  0.00     7 H
                                    3.48%     2 P:x            -7.578  1.33     2 S
                                   -2.24%     3 S              43.500  0.00     7 H
                                   -2.24%     3 S              43.500  0.00     9 H
                                    1.72%     2 P:x             5.519  0.00     4 C
                                    1.72%     2 P:x             5.519  0.00     3 C
                                    1.46%     1 D:xy           13.420  0.00     2 S
                                    1.31%     1 P:x            -9.955  1.33     1 O
                                   -1.28%     4 P:x            34.854  0.00     2 S
                                    1.25%     1 P:z            -5.048  0.67     3 C
                                    1.25%     1 P:z            -5.048  0.67     4 C
                                    1.16%     1 P:x            -5.048  0.67     4 C
                                    1.16%     1 P:x            -5.048  0.67     3 C
       4.622  0.00    33 A         74.28%     3 P:y             4.258  0.00     2 S
                                    4.42%     1 P:z            -5.048  0.67     4 C
                                    4.42%     1 P:z            -5.048  0.67     3 C
                                   -3.76%     2 P:y            10.811  0.00     1 O
                                    3.70%     1 S              -6.582  1.00     8 H
                                    3.70%     1 S              -6.582  1.00     5 H
                                    2.92%     2 P:z             5.519  0.00     4 C
                                    2.92%     2 P:z             5.519  0.00     3 C
                                   -2.41%     3 S              11.266  0.00     4 C
                                   -2.41%     3 S              11.266  0.00     3 C
                                    1.95%     1 S              -6.582  1.00     6 H
                                    1.95%     1 S              -6.582  1.00    10 H
                                   -1.70%     1 S              -6.582  1.00     7 H
                                   -1.70%     1 S              -6.582  1.00     9 H
                                   -1.54%     4 S               6.231  0.00     2 S
                                    1.45%     1 D:x2-y2        13.420  0.00     2 S
                                    1.35%     3 P:z             4.258  0.00     2 S
                                    1.32%     1 P:x            12.103  0.00     8 H
                                    1.32%     1 P:x            12.103  0.00     5 H
                                    1.14%     1 P:z            12.103  0.00     6 H
                                    1.14%     1 P:z            12.103  0.00    10 H
       5.461  0.00    34 A         14.11%     1 S              -6.582  1.00     5 H
                                   14.11%     1 S              -6.582  1.00     8 H
                                   12.23%     1 P:z            -5.048  0.67     3 C
                                   12.23%     1 P:z            -5.048  0.67     4 C
                                   11.79%     2 P:z             5.519  0.00     3 C
                                   11.79%     2 P:z             5.519  0.00     4 C
                                   11.33%     3 P:x             4.258  0.00     2 S
                                    3.48%     1 P:x            -9.955  1.33     1 O
                                    3.44%     2 P:x            -7.578  1.33     2 S
                                    2.96%     1 P:y            -5.048  0.67     3 C
                                    2.96%     1 P:y            -5.048  0.67     4 C
                                   -2.93%     2 P:x            10.811  0.00     1 O
                                   -2.84%     2 S               3.073  0.00     5 H
                                   -2.84%     2 S               3.073  0.00     8 H
                                    2.74%     2 P:x             5.519  0.00     3 C
                                    2.74%     2 P:x             5.519  0.00     4 C
                                    2.70%     1 D:xz           13.420  0.00     2 S
                                   -2.63%     3 S              43.500  0.00     5 H
                                   -2.63%     3 S              43.500  0.00     8 H
                                   -1.91%     3 S              11.266  0.00     3 C
                                   -1.91%     3 S              11.266  0.00     4 C
                                    1.76%     2 S             -15.871  2.00     3 C
                                    1.76%     2 S             -15.871  2.00     4 C
                                    1.64%     1 P:z            12.103  0.00    10 H
                                    1.64%     1 P:z            12.103  0.00     6 H
       5.569  0.00    35 A         19.80%     2 P:z             5.519  0.00     4 C
                                   19.80%     2 P:z             5.519  0.00     3 C
                                    7.63%     1 P:y            -5.048  0.67     4 C
                                    7.63%     1 P:y            -5.048  0.67     3 C
                                    7.51%     2 P:x             5.519  0.00     4 C
                                    7.51%     2 P:x             5.519  0.00     3 C
                                    5.21%     1 P:z            -5.048  0.67     4 C
                                    5.21%     1 P:z            -5.048  0.67     3 C
                                    4.29%     1 D:x2-y2        13.420  0.00     2 S
                                    4.14%     3 P:y             4.258  0.00     2 S
                                   -4.11%     4 S               6.231  0.00     2 S
                                    3.76%     2 P:z            -7.578  1.33     2 S
                                   -3.75%     2 P:y            -7.578  1.33     2 S
                                   -3.58%     2 S               3.073  0.00     8 H
                                   -3.58%     2 S               3.073  0.00     5 H
                                    3.02%     1 P:y            12.103  0.00    10 H
                                    3.02%     1 P:y            12.103  0.00     6 H
                                   -2.85%     3 S             -19.423  2.00     2 S
                                    2.40%     1 S              -6.582  1.00     9 H
                                    2.40%     1 S              -6.582  1.00     7 H
                                    2.07%     1 S              -6.582  1.00     8 H
                                    2.07%     1 S              -6.582  1.00     5 H
                                    2.02%     3 P:z             4.258  0.00     2 S
                                   -1.68%     3 S              43.500  0.00     8 H
                                   -1.68%     3 S              43.500  0.00     5 H
                                    1.65%     1 P:y            -9.955  1.33     1 O
                                    1.29%     1 P:x            12.103  0.00     7 H
                                    1.29%     1 P:x            12.103  0.00     9 H
                                    1.24%     1 D:z2           13.420  0.00     2 S
                                    1.14%     4 P:y            34.854  0.00     2 S



 =======================================================================
 Electrostatic potential at the Nuclei due to electrons and other nuclei
 =======================================================================
  
         Atom                  Potential
         ----                  ---------
     1)   O                  22.44655820
     2)   S                  59.52697175
     3)   C                  14.75262292
     4)   C                  14.75262291
     5)   H                   1.07140058
     6)   H                   1.07743122
     7)   H                   1.07802301
     8)   H                   1.07140057
     9)   H                   1.07802300
    10)   H                   1.07743119
 Mulliken charges used for AMS results%charges...


    =====================
     CALCULATION RESULTS
    =====================

Energy (hartree)            -2.28832018


--------------
Atomic charges
--------------
  Index   Atom    Charge
      1      O   -0.6683
      2      S    0.6098
      3      C    0.4384
      4      C    0.4384
      5      H   -0.1466
      6      H   -0.1431
      7      H   -0.1195
      8      H   -0.1466
      9      H   -0.1195
     10      H   -0.1431


Dipole moment vector    (Debye):    -0.00000145    0.33634576    4.25487514
              magnitude (Debye):     4.26814841


-----------------------
Molecular orbitals info
-----------------------
n orbitals:              178
n spin:                    1

Note: only printing virtual orbitals with
      energy smaller than HOMO + 100. eV

HOMO (eV):              -6.6730
LUMO (eV):               0.3114
HOMO-LUMO gap (eV):      6.9844

   Index   Energy (eV)    Occupation
     119       90.6636         0.000       
     118       88.4416         0.000       
     117       84.7184         0.000       
     116       83.6808         0.000       
     115       83.2886         0.000       
     114       82.3387         0.000       
     113       80.9796         0.000       
     112       79.4131         0.000       
     111       79.1239         0.000       
     110       78.7751         0.000       
     109       78.5772         0.000       
     108       77.2789         0.000       
     107       76.4738         0.000       
     106       76.3751         0.000       
     105       72.7001         0.000       
     104       70.6580         0.000       
     103       67.2788         0.000       
     102       65.4031         0.000       
     101       64.6067         0.000       
     100       62.7907         0.000       
      99       61.9236         0.000       
      98       61.6307         0.000       
      97       60.8034         0.000       
      96       60.5990         0.000       
      95       59.6687         0.000       
      94       59.0558         0.000       
      93       56.3334         0.000       
      92       55.8432         0.000       
      91       54.3115         0.000       
      90       52.9725         0.000       
      89       52.2978         0.000       
      88       51.8241         0.000       
      87       50.7163         0.000       
      86       49.6820         0.000       
      85       47.1034         0.000       
      84       46.0627         0.000       
      83       44.7673         0.000       
      82       43.9080         0.000       
      81       43.6597         0.000       
      80       41.6950         0.000       
      79       41.3096         0.000       
      78       39.9182         0.000       
      77       39.3143         0.000       
      76       38.6557         0.000       
      75       38.2859         0.000       
      74       37.0322         0.000       
      73       36.5967         0.000       
      72       35.5921         0.000       
      71       34.2983         0.000       
      70       33.2506         0.000       
      69       32.1956         0.000       
      68       31.4920         0.000       
      67       30.4875         0.000       
      66       29.5417         0.000       
      65       29.1285         0.000       
      64       29.0652         0.000       
      63       27.8670         0.000       
      62       26.7818         0.000       
      61       26.4515         0.000       
      60       25.5624         0.000       
      59       23.2605         0.000       
      58       22.8609         0.000       
      57       20.4519         0.000       
      56       20.0692         0.000       
      55       20.0211         0.000       
      54       19.5794         0.000       
      53       18.9940         0.000       
      52       17.7126         0.000       
      51       17.2780         0.000       
      50       15.2559         0.000       
      49       13.5893         0.000       
      48       13.4969         0.000       
      47       12.5398         0.000       
      46       12.1726         0.000       
      45       11.9898         0.000       
      44       11.7329         0.000       
      43       11.6346         0.000       
      42       11.1778         0.000       
      41        9.8990         0.000       
      40        9.4933         0.000       
      39        9.3519         0.000       
      38        7.9633         0.000       
      37        7.4982         0.000       
      36        6.3443         0.000       
      35        5.5686         0.000       
      34        5.4606         0.000       
      33        4.6219         0.000       
      32        4.5340         0.000       
      31        4.2674         0.000       
      30        3.1229         0.000       
      29        2.6389         0.000       
      28        1.9589         0.000       
      27        1.7863         0.000       
      26        1.6643         0.000       
      25        1.4927         0.000       
      24        0.9731         0.000       
      23        0.7089         0.000       
      22        0.3114         0.000 < LUMO
      21       -6.6730         2.000 < HOMO
      20       -7.8124         2.000       
      19      -10.0440         2.000       
      18      -11.2002         2.000       
      17      -11.3804         2.000       
      16      -12.1099         2.000       
      15      -13.0387         2.000       
      14      -13.0873         2.000       
      13      -13.4101         2.000       
      12      -16.9993         2.000       
      11      -20.4846         2.000       
      10      -22.5215         2.000       
       9      -28.2061         2.000       
       8     -163.4310         2.000       
       7     -163.5853         2.000       
       6     -163.5863         2.000       
       5     -221.1487         2.000       
       4     -279.1784         2.000       
       3     -279.1785         2.000       
       2     -521.7817         2.000       
       1    -2432.5327         2.000       

AMS application finished. Exiting.
NORMAL TERMINATION
     Total cpu time:      60.28
  Total system time:       1.11
 Total elapsed time:      71.77
