

 Parallel Execution: Process Information
 ==============================================================================
 Rank   Node Name                              NodeID   MyNodeRank  NodeMaster
    0   u-0-11.local                              0          0          0
    1   u-0-11.local                              0          1         -1
    2   u-0-11.local                              1          0          1
    3   u-0-11.local                              1          1         -1
    4   u-0-11.local                              2          0          2
    5   u-0-11.local                              2          1         -1
    6   u-0-11.local                              3          0          3
    7   u-0-11.local                              3          1         -1
 ==============================================================================


May use up to 31200MB of RAM as shared memory on node 0
May use up to 31250MB of RAM as shared memory on node 3
May use up to 31250MB of RAM as shared memory on node 2
May use up to 31250MB of RAM as shared memory on node 1

 *******************************************************************************
 *                                                                             *
 *  --------------------------------                                           *
 *   Amsterdam Modeling Suite (AMS)              2025.104                      *
 *  --------------------------------                                           *
 *                                               r250815 2025-08-15 94ea0506   *
 *                                                                             *
 *                                                                             *
 *                              =================                              *
 *                              |               |                              *
 *                              |     A M S     |                              *
 *                              |               |                              *
 *                              =================                              *
 *                                                                             *
 *                                                                             *
 *   Online information and documentation:  https://www.scm.com/support/       *
 *   E-mail:  support@scm.com   info@scm.com                                   *
 *                                                                             *
 *   Scientific publications using AMS results must be properly referenced     *
 *   See the User Manuals (or the web site) for recommended citations          *
 *   The terms and conditions of the End User License Agreement apply to       *
 *   the use of AMS, https://www.scm.com/license-terms/                        *
 *                                                                             *
 **********************  x86_64_linux_intel / intelmpi  ************************
 
 Licensed to: Dr. Val?rie Vallet / Laboratoire PhLAM UMR 8523 / Villeneuve d'Ascq Cedex / FRANCE 2024-12-20 16:14:47
 SCM User ID: u10325
  
 AMS 2025.104  RunTime: Nov13-2025 11:16:27  ShM Nodes: 4  Procs: 8

 AMS jobname: DMSO.pbe0-d3bj-gp.x2c-so
 AMS jobid  : 2095931822

 Start   directory: /state/partition2/vallet/1073274.phlam-s-sakura/
 Results directory: /home/vallet/ANL/ANL-UVI-structures-Emily/DMSO/X2C-SO/DMSO.pbe0-d3bj-gp.x2c-so.results/
 Scratch directory: /state/partition2/vallet/1073274.phlam-s-sakura/amstmp_DMSO.pbe0-d3bj-gp.x2c-so_kid0.2095931822/


 Communication costs MPI_COMM_WORLD:      2.040 usec per message,   0.0220 usec per 8-byte item
 Communication costs for intra-node:      0.416 usec per message,   0.0027 usec per 8-byte item

 RNG seed: -414032573 -336533692 -530649439 -499331986 -898105158 99773463 640647208 747229342



                      ************************************************************************
                      *  ADF 2025.104  RunTime: Nov13-2025 11:16:28  ShM Nodes: 4  Procs: 8  *
                      ************************************************************************
  

       ****************************
       * SINGLE POINT CALCULATION *
       ****************************
 
--------
Geometry
--------
Formula: C2H6OS
Atoms
  Index Symbol   x (angstrom)   y (angstrom)   z (angstrom)
      1      O     0.00000000    -0.26702300     0.13547000
      2      S     0.00000000    -0.79352500     1.54277600
      3      C     1.34365600     0.02140300     2.39252800
      4      C    -1.34365600     0.02140300     2.39252800
      5      H     1.31235800    -0.25983700     3.44636000
      6      H     2.27046600    -0.33236700     1.94082500
      7      H     1.24072800     1.10107500     2.27116400
      8      H    -1.31235800    -0.25983700     3.44636000
      9      H    -1.24072800     1.10107500     2.27116400
     10      H    -2.27046600    -0.33236700     1.94082500
 
Total System Charge             0.00000
Bonding info available!
 
 
----------------
ADF Engine Input
----------------
 
 Basis
 Type TZ2P
 Core None
 End
 XC
 Hybrid PBE0
 DISPERSION Grimme3 BJDAMP
 End
 Relativity
 Level Spin-Orbit
 Formalism X2C
 SpinOrbitMagnetization NonCollinear
 End
 NumericalQuality Good
 

 Title: *** (NO TITLE) ***

 *** adf ***



 ===========================
 A T T A C H E D   F I L E S
 ===========================
  



 ===============================
 M O D E L   P A R A M E T E R S
 ===============================
  
 DENSITY FUNCTIONAL POTENTIAL (scf)
    Hybrid:                            PBE0                                    == Not Default ==

 SPIN  (restricted / unrestr.)
    Molecule:                          Restricted                               
    Fragments:                         Restricted                               

 OTHER ASPECTS
    Relativistic Corrections:          Spin-Orbit (X2C,MAPA)                   == Not Default ==

    Nuclear Charge Density Model:      Point Charge Nuclei                      
    Core Treatment:                    Frozen Orbital(s)                        

    Hyperfine or Zeeman Interaction:   ---                                      

 Settings for Grimme D3 dispersion correction

      damping                        BJ
      s6                          1.000
      s8                          1.218
      a1                          0.414
      a2                          4.859

 Other (technical) parameters

      alpha                      14.000
      version                         4
 
 WARNING: Atom coordinates do not satisfy full symmetry (probably due to orientation).


 Fragment File(s)
 ----------------
 O:
         file : /home/vallet/ANL/ANL-UVI-structures-Emily/DMSO/X2C-SO/DMSO.pbe0-d3bj-gp.x2c-so.results/t21.2E30D0CB.O
         jobid: 0
         title: Oxygen (TZ2P)
 S:
         file : /home/vallet/ANL/ANL-UVI-structures-Emily/DMSO/X2C-SO/DMSO.pbe0-d3bj-gp.x2c-so.results/t21.65A2AEA0.S
         jobid: 0
         title: Sulphur (TZ2P)
 C:
         file : /home/vallet/ANL/ANL-UVI-structures-Emily/DMSO/X2C-SO/DMSO.pbe0-d3bj-gp.x2c-so.results/t21.9CB274C.C
         jobid: 0
         title: Carbon (TZ2P)
 H:
         file : /home/vallet/ANL/ANL-UVI-structures-Emily/DMSO/X2C-SO/DMSO.pbe0-d3bj-gp.x2c-so.results/t21.316B2D2C.H
         jobid: 0
         title: Hydrogen (TZ2P)



 ===============
 G E O M E T R Y  ***  3D  Molecule  ***
 ===============
  

 ATOMS
 =====                            X Y Z                    CHARGE
                                (Angstrom)             Nucl     +Core       At.Mass
                       --------------------------    ----------------       -------
    1  O               0.0000   -0.2670    0.1355      8.00      8.00       15.9949
    2  S               0.0000   -0.7935    1.5428     16.00     16.00       31.9721
    3  C               1.3437    0.0214    2.3925      6.00      6.00       12.0000
    4  C              -1.3437    0.0214    2.3925      6.00      6.00       12.0000
    5  H               1.3124   -0.2598    3.4464      1.00      1.00        1.0078
    6  H               2.2705   -0.3324    1.9408      1.00      1.00        1.0078
    7  H               1.2407    1.1011    2.2712      1.00      1.00        1.0078
    8  H              -1.3124   -0.2598    3.4464      1.00      1.00        1.0078
    9  H              -1.2407    1.1011    2.2712      1.00      1.00        1.0078
   10  H              -2.2705   -0.3324    1.9408      1.00      1.00        1.0078


 FRAGMENTS
 =========                                     Atoms in this Fragment     Cart. coord.s (Angstrom)
                                               -------------------------------------------------------
    1  O                                                 1  O            0.0000   -0.2670    0.1355
    2  S                                                 2  S            0.0000   -0.7935    1.5428
    3  C                                                 3  C            1.3437    0.0214    2.3925
    4  C                                                 4  C           -1.3437    0.0214    2.3925
    5  H                                                 5  H            1.3124   -0.2598    3.4464
    6  H                                                 6  H            2.2705   -0.3324    1.9408
    7  H                                                 7  H            1.2407    1.1011    2.2712
    8  H                                                 8  H           -1.3124   -0.2598    3.4464
    9  H                                                 9  H           -1.2407    1.1011    2.2712
   10  H                                                10  H           -2.2705   -0.3324    1.9408


 Interatomic Distance Matrix (Angstrom)
 --------------------------------------

   1)     0.000
   2)     1.503   0.000
   3)     2.643   1.787   0.000
   4)     2.643   1.787   2.687   0.000
   5)     3.562   2.373   1.091   2.871   0.000
   6)     2.901   2.351   1.090   3.659   1.786   0.000
   7)     2.824   2.379   1.091   2.803   1.800   1.796   0.000
   8)     3.562   2.373   2.871   1.091   2.625   3.887   3.123   0.000
   9)     2.824   2.379   2.803   1.091   3.123   3.807   2.481   1.800   0.000
  10)     2.901   2.351   3.659   1.090   3.887   4.541   3.807   1.786   1.796   0.000

 Min. Distance =    1.0900
 Max. Distance =    4.5409



 =====================================
 S Y M M E T R Y ,   E L E C T R O N S
 =====================================
  
 Symmetry: NOSYM

 Double Group Irreducible Representations (spinor symmetry)
 -----------------------------------------------------------
 A1/2

 Symmetry is NOT used when fitting density


 Configuration of Valence Electrons
 ==================================
 ( determined in the SCF procedure )

 Total:   42

 Net Charge: 0 (Nuclei minus Electrons)

 Aufbau principle for MO occupations will be applied through SCF cycle no.     150
 Thereafter, the program will assign electrons to MOs that are spatially
 similar to the occupied MOs in a "reference" cycle ("KeepOrbitals").
 The reference cycle is always the PREVIOUS cycle: it will evolve with
 the SCF procedure.
 ***************************************************************************************************



                                      ****************************************
                                      *  B U I L D : (Fragments, Functions)  *
                                      ****************************************
  



 =======
 S F O s  ***  (Symmetrized Fragment Orbitals)  ***
 =======
  
 SFOs are linear combinations of (valence) Fragment Orbitals (FOs), such that the SFOs transform as the
 irreducible representations of the (molecular) symmetry group. Each SFO is therefore characterized by
 an irrep of the molecule and by a few (or only one) generating FOs.
 The SFOs constitute a symmetry-adapted basis for the Fock matrix. The MO eigenvector coefficients in
 this basis provide a direct interpretation of the MOs in terms of Frontier Orbital Theory.

 The SFOs are combined with auxiliary Core Functions (CFs) to ensure orthogonalization on the (frozen)
 Core Orbitals (COs). The Core-orthogonalized SFOs (CSFOs) constitute the true Fock basis.

 The FOs, and hence also the (C)SFOs are combinations of the elementary basis functions (BAS). The basis
 functions that participate in the description of the SFOs depend on the irrep. The indices of the
 involved functions are printed below for each irrep.
 (The complete list of primitive basis functions is printed in another section)

 Total nr. of (C)SFOs (summation over all irreps) :   178

 NOTE: a (C)SFO that is defined as a combination of more than one FO is usually NOT normalized.

 NOTE: the (C)SFOs are single group symmetry adapted orbitals.



                                       === A ===
 Nr. of SFOs :  178
 Cartesian basis functions that participate in this irrep (total number =   200) :
      1     2     3     4     5     6     9    12     7    10
     13     8    11    14    15    16    17    18    19    20
     21    22    23    24    25    26    27    28    29    30
     31    32    33    34    41    42    43    35    38    44
     47    50    36    39    45    48    51    37    40    46
     49    52    53    54    55    56    57    58    59    60
     61    62    63    64    65    66    67    68    69    70
     71    72    73    74    77    80    75    78    81    76
     79    82    83    84    85    86    87    88    89    90
     91    92    93    94    95    96    97    98    99   100
    101   102   103   104   107   110   105   108   111   106
    109   112   113   114   115   116   117   118   119   120
    121   122   123   124   125   126   127   128   129   130
    131   132   133   134   135   136   137   138   139   140
    141   142   143   144   145   146   147   148   149   150
    151   152   153   154   155   156   157   158   159   160
    161   162   163   164   165   166   167   168   169   170
    171   172   173   174   175   176   177   178   179   180
    181   182   183   184   185   186   187   188   189   190
    191   192   193   194   195   196   197   198   199   200

    SFO  (index         Fragment          Generating    Expansion in Fragment Orbitals
  indx  incl.CFs)   Occup   Orb.Energy   FragmentType  Coeff.   Orbital     on Fragment
 --------------------------------------------------------------------------------------
     1       1      2.000     -19.396 au  O             1.00      1 S               1
                        (    -527.798 eV)
     2       2      2.000      -0.999 au  O             1.00      2 S               1
                        (     -27.197 eV)
     3       3       --         0.856 au  O             1.00      3 S               1
                        (      23.286 eV)
     4       4       --        13.669 au  O             1.00      4 S               1
                        (     371.959 eV)
     5       5       --       122.371 au  O             1.00      5 S               1
                        (    3329.873 eV)
     6       6      1.333      -0.366 au  O             1.00      1 P:x             1
                        (      -9.955 eV)
     7       7       --         0.397 au  O             1.00      2 P:x             1
                        (      10.811 eV)
     8       8       --         3.979 au  O             1.00      3 P:x             1
                        (     108.279 eV)
     9       9      1.333      -0.366 au  O             1.00      1 P:y             1
                        (      -9.955 eV)
    10      10       --         0.397 au  O             1.00      2 P:y             1
                        (      10.811 eV)
    11      11       --         3.979 au  O             1.00      3 P:y             1
                        (     108.279 eV)
    12      12      1.333      -0.366 au  O             1.00      1 P:z             1
                        (      -9.955 eV)
    13      13       --         0.397 au  O             1.00      2 P:z             1
                        (      10.811 eV)
    14      14       --         3.979 au  O             1.00      3 P:z             1
                        (     108.279 eV)
    15      15       --         1.128 au  O             1.00      1 D:z2            1
                        (      30.706 eV)
    16      16       --         1.128 au  O             1.00      1 D:x2-y2         1
                        (      30.706 eV)
    17      17       --         1.128 au  O             1.00      1 D:xy            1
                        (      30.706 eV)
    18      18       --         1.128 au  O             1.00      1 D:xz            1
                        (      30.706 eV)
    19      19       --         1.128 au  O             1.00      1 D:yz            1
                        (      30.706 eV)
    20      20       --         3.446 au  O             1.00      1 F:z3            1
                        (      93.772 eV)
    21      21       --         3.446 au  O             1.00      1 F:z             1
                        (      93.772 eV)
    22      22       --         3.446 au  O             1.00      1 F:xyz           1
                        (      93.772 eV)
    23      23       --         3.446 au  O             1.00      1 F:z2x           1
                        (      93.772 eV)
    24      24       --         3.446 au  O             1.00      1 F:z2y           1
                        (      93.772 eV)
    25      25       --         3.446 au  O             1.00      1 F:x             1
                        (      93.772 eV)
    26      26       --         3.446 au  O             1.00      1 F:y             1
                        (      93.772 eV)
    27      27      2.000     -89.378 au  S             1.00      1 S               2
                        (   -2432.093 eV)
    28      28      2.000      -8.117 au  S             1.00      2 S               2
                        (    -220.880 eV)
    29      29      2.000      -0.714 au  S             1.00      3 S               2
                        (     -19.423 eV)
    30      30       --         0.229 au  S             1.00      4 S               2
                        (       6.231 eV)
    31      31       --         2.114 au  S             1.00      5 S               2
                        (      57.513 eV)
    32      32       --        12.773 au  S             1.00      6 S               2
                        (     347.565 eV)
    33      33       --       192.883 au  S             1.00      7 S               2
                        (    5248.605 eV)
    34      34      2.000      -5.999 au  S             1.00      1 P:x             2
                        (    -163.247 eV)
    35      35      1.333      -0.278 au  S             1.00      2 P:x             2
                        (      -7.578 eV)
    36      36       --         0.156 au  S             1.00      3 P:x             2
                        (       4.258 eV)
    37      37       --         1.281 au  S             1.00      4 P:x             2
                        (      34.854 eV)
    38      38       --        13.224 au  S             1.00      5 P:x             2
                        (     359.833 eV)
    39      39      2.000      -5.999 au  S             1.00      1 P:y             2
                        (    -163.247 eV)
    40      40      1.333      -0.278 au  S             1.00      2 P:y             2
                        (      -7.578 eV)
    41      41       --         0.156 au  S             1.00      3 P:y             2
                        (       4.258 eV)
    42      42       --         1.281 au  S             1.00      4 P:y             2
                        (      34.854 eV)
    43      43       --        13.224 au  S             1.00      5 P:y             2
                        (     359.833 eV)
    44      44      2.000      -5.999 au  S             1.00      1 P:z             2
                        (    -163.247 eV)
    45      45      1.333      -0.278 au  S             1.00      2 P:z             2
                        (      -7.578 eV)
    46      46       --         0.156 au  S             1.00      3 P:z             2
                        (       4.258 eV)
    47      47       --         1.281 au  S             1.00      4 P:z             2
                        (      34.854 eV)
    48      48       --        13.224 au  S             1.00      5 P:z             2
                        (     359.833 eV)
    49      49       --         0.493 au  S             1.00      1 D:z2            2
                        (      13.420 eV)
    50      50       --         0.493 au  S             1.00      1 D:x2-y2         2
                        (      13.420 eV)
    51      51       --         0.493 au  S             1.00      1 D:xy            2
                        (      13.420 eV)
    52      52       --         0.493 au  S             1.00      1 D:xz            2
                        (      13.420 eV)
    53      53       --         0.493 au  S             1.00      1 D:yz            2
                        (      13.420 eV)
    54      54       --         1.337 au  S             1.00      1 F:z3            2
                        (      36.374 eV)
    55      55       --         1.337 au  S             1.00      1 F:z             2
                        (      36.374 eV)
    56      56       --         1.337 au  S             1.00      1 F:xyz           2
                        (      36.374 eV)
    57      57       --         1.337 au  S             1.00      1 F:z2x           2
                        (      36.374 eV)
    58      58       --         1.337 au  S             1.00      1 F:z2y           2
                        (      36.374 eV)
    59      59       --         1.337 au  S             1.00      1 F:x             2
                        (      36.374 eV)
    60      60       --         1.337 au  S             1.00      1 F:y             2
                        (      36.374 eV)
    61      61      2.000     -10.410 au  C             1.00      1 S               3
                        (    -283.268 eV)
    62      62      2.000      -0.583 au  C             1.00      2 S               3
                        (     -15.871 eV)
    63      63       --         0.414 au  C             1.00      3 S               3
                        (      11.266 eV)
    64      64       --         5.548 au  C             1.00      4 S               3
                        (     150.975 eV)
    65      65       --        50.362 au  C             1.00      5 S               3
                        (    1370.412 eV)
    66      66      0.667      -0.185 au  C             1.00      1 P:x             3
                        (      -5.048 eV)
    67      67       --         0.203 au  C             1.00      2 P:x             3
                        (       5.519 eV)
    68      68       --         2.124 au  C             1.00      3 P:x             3
                        (      57.805 eV)
    69      69      0.667      -0.185 au  C             1.00      1 P:y             3
                        (      -5.048 eV)
    70      70       --         0.203 au  C             1.00      2 P:y             3
                        (       5.519 eV)
    71      71       --         2.124 au  C             1.00      3 P:y             3
                        (      57.805 eV)
    72      72      0.667      -0.185 au  C             1.00      1 P:z             3
                        (      -5.048 eV)
    73      73       --         0.203 au  C             1.00      2 P:z             3
                        (       5.519 eV)
    74      74       --         2.124 au  C             1.00      3 P:z             3
                        (      57.805 eV)
    75      75       --         1.300 au  C             1.00      1 D:z2            3
                        (      35.364 eV)
    76      76       --         1.300 au  C             1.00      1 D:x2-y2         3
                        (      35.364 eV)
    77      77       --         1.300 au  C             1.00      1 D:xy            3
                        (      35.364 eV)
    78      78       --         1.300 au  C             1.00      1 D:xz            3
                        (      35.364 eV)
    79      79       --         1.300 au  C             1.00      1 D:yz            3
                        (      35.364 eV)
    80      80       --         4.096 au  C             1.00      1 F:z3            3
                        (     111.471 eV)
    81      81       --         4.096 au  C             1.00      1 F:z             3
                        (     111.471 eV)
    82      82       --         4.096 au  C             1.00      1 F:xyz           3
                        (     111.471 eV)
    83      83       --         4.096 au  C             1.00      1 F:z2x           3
                        (     111.471 eV)
    84      84       --         4.096 au  C             1.00      1 F:z2y           3
                        (     111.471 eV)
    85      85       --         4.096 au  C             1.00      1 F:x             3
                        (     111.471 eV)
    86      86       --         4.096 au  C             1.00      1 F:y             3
                        (     111.471 eV)
    87      87      2.000     -10.410 au  C             1.00      1 S               4
                        (    -283.268 eV)
    88      88      2.000      -0.583 au  C             1.00      2 S               4
                        (     -15.871 eV)
    89      89       --         0.414 au  C             1.00      3 S               4
                        (      11.266 eV)
    90      90       --         5.548 au  C             1.00      4 S               4
                        (     150.975 eV)
    91      91       --        50.362 au  C             1.00      5 S               4
                        (    1370.412 eV)
    92      92      0.667      -0.185 au  C             1.00      1 P:x             4
                        (      -5.048 eV)
    93      93       --         0.203 au  C             1.00      2 P:x             4
                        (       5.519 eV)
    94      94       --         2.124 au  C             1.00      3 P:x             4
                        (      57.805 eV)
    95      95      0.667      -0.185 au  C             1.00      1 P:y             4
                        (      -5.048 eV)
    96      96       --         0.203 au  C             1.00      2 P:y             4
                        (       5.519 eV)
    97      97       --         2.124 au  C             1.00      3 P:y             4
                        (      57.805 eV)
    98      98      0.667      -0.185 au  C             1.00      1 P:z             4
                        (      -5.048 eV)
    99      99       --         0.203 au  C             1.00      2 P:z             4
                        (       5.519 eV)
   100     100       --         2.124 au  C             1.00      3 P:z             4
                        (      57.805 eV)
   101     101       --         1.300 au  C             1.00      1 D:z2            4
                        (      35.364 eV)
   102     102       --         1.300 au  C             1.00      1 D:x2-y2         4
                        (      35.364 eV)
   103     103       --         1.300 au  C             1.00      1 D:xy            4
                        (      35.364 eV)
   104     104       --         1.300 au  C             1.00      1 D:xz            4
                        (      35.364 eV)
   105     105       --         1.300 au  C             1.00      1 D:yz            4
                        (      35.364 eV)
   106     106       --         4.096 au  C             1.00      1 F:z3            4
                        (     111.471 eV)
   107     107       --         4.096 au  C             1.00      1 F:z             4
                        (     111.471 eV)
   108     108       --         4.096 au  C             1.00      1 F:xyz           4
                        (     111.471 eV)
   109     109       --         4.096 au  C             1.00      1 F:z2x           4
                        (     111.471 eV)
   110     110       --         4.096 au  C             1.00      1 F:z2y           4
                        (     111.471 eV)
   111     111       --         4.096 au  C             1.00      1 F:x             4
                        (     111.471 eV)
   112     112       --         4.096 au  C             1.00      1 F:y             4
                        (     111.471 eV)
   113     113      1.000      -0.242 au  H             1.00      1 S               5
                        (      -6.582 eV)
   114     114       --         0.113 au  H             1.00      2 S               5
                        (       3.073 eV)
   115     115       --         1.599 au  H             1.00      3 S               5
                        (      43.500 eV)
   116     116       --         0.445 au  H             1.00      1 P:x             5
                        (      12.103 eV)
   117     117       --         0.445 au  H             1.00      1 P:y             5
                        (      12.103 eV)
   118     118       --         0.445 au  H             1.00      1 P:z             5
                        (      12.103 eV)
   119     119       --         2.628 au  H             1.00      1 D:z2            5
                        (      71.505 eV)
   120     120       --         2.628 au  H             1.00      1 D:x2-y2         5
                        (      71.505 eV)
   121     121       --         2.628 au  H             1.00      1 D:xy            5
                        (      71.505 eV)
   122     122       --         2.628 au  H             1.00      1 D:xz            5
                        (      71.505 eV)
   123     123       --         2.628 au  H             1.00      1 D:yz            5
                        (      71.505 eV)
   124     124      1.000      -0.242 au  H             1.00      1 S               6
                        (      -6.582 eV)
   125     125       --         0.113 au  H             1.00      2 S               6
                        (       3.073 eV)
   126     126       --         1.599 au  H             1.00      3 S               6
                        (      43.500 eV)
   127     127       --         0.445 au  H             1.00      1 P:x             6
                        (      12.103 eV)
   128     128       --         0.445 au  H             1.00      1 P:y             6
                        (      12.103 eV)
   129     129       --         0.445 au  H             1.00      1 P:z             6
                        (      12.103 eV)
   130     130       --         2.628 au  H             1.00      1 D:z2            6
                        (      71.505 eV)
   131     131       --         2.628 au  H             1.00      1 D:x2-y2         6
                        (      71.505 eV)
   132     132       --         2.628 au  H             1.00      1 D:xy            6
                        (      71.505 eV)
   133     133       --         2.628 au  H             1.00      1 D:xz            6
                        (      71.505 eV)
   134     134       --         2.628 au  H             1.00      1 D:yz            6
                        (      71.505 eV)
   135     135      1.000      -0.242 au  H             1.00      1 S               7
                        (      -6.582 eV)
   136     136       --         0.113 au  H             1.00      2 S               7
                        (       3.073 eV)
   137     137       --         1.599 au  H             1.00      3 S               7
                        (      43.500 eV)
   138     138       --         0.445 au  H             1.00      1 P:x             7
                        (      12.103 eV)
   139     139       --         0.445 au  H             1.00      1 P:y             7
                        (      12.103 eV)
   140     140       --         0.445 au  H             1.00      1 P:z             7
                        (      12.103 eV)
   141     141       --         2.628 au  H             1.00      1 D:z2            7
                        (      71.505 eV)
   142     142       --         2.628 au  H             1.00      1 D:x2-y2         7
                        (      71.505 eV)
   143     143       --         2.628 au  H             1.00      1 D:xy            7
                        (      71.505 eV)
   144     144       --         2.628 au  H             1.00      1 D:xz            7
                        (      71.505 eV)
   145     145       --         2.628 au  H             1.00      1 D:yz            7
                        (      71.505 eV)
   146     146      1.000      -0.242 au  H             1.00      1 S               8
                        (      -6.582 eV)
   147     147       --         0.113 au  H             1.00      2 S               8
                        (       3.073 eV)
   148     148       --         1.599 au  H             1.00      3 S               8
                        (      43.500 eV)
   149     149       --         0.445 au  H             1.00      1 P:x             8
                        (      12.103 eV)
   150     150       --         0.445 au  H             1.00      1 P:y             8
                        (      12.103 eV)
   151     151       --         0.445 au  H             1.00      1 P:z             8
                        (      12.103 eV)
   152     152       --         2.628 au  H             1.00      1 D:z2            8
                        (      71.505 eV)
   153     153       --         2.628 au  H             1.00      1 D:x2-y2         8
                        (      71.505 eV)
   154     154       --         2.628 au  H             1.00      1 D:xy            8
                        (      71.505 eV)
   155     155       --         2.628 au  H             1.00      1 D:xz            8
                        (      71.505 eV)
   156     156       --         2.628 au  H             1.00      1 D:yz            8
                        (      71.505 eV)
   157     157      1.000      -0.242 au  H             1.00      1 S               9
                        (      -6.582 eV)
   158     158       --         0.113 au  H             1.00      2 S               9
                        (       3.073 eV)
   159     159       --         1.599 au  H             1.00      3 S               9
                        (      43.500 eV)
   160     160       --         0.445 au  H             1.00      1 P:x             9
                        (      12.103 eV)
   161     161       --         0.445 au  H             1.00      1 P:y             9
                        (      12.103 eV)
   162     162       --         0.445 au  H             1.00      1 P:z             9
                        (      12.103 eV)
   163     163       --         2.628 au  H             1.00      1 D:z2            9
                        (      71.505 eV)
   164     164       --         2.628 au  H             1.00      1 D:x2-y2         9
                        (      71.505 eV)
   165     165       --         2.628 au  H             1.00      1 D:xy            9
                        (      71.505 eV)
   166     166       --         2.628 au  H             1.00      1 D:xz            9
                        (      71.505 eV)
   167     167       --         2.628 au  H             1.00      1 D:yz            9
                        (      71.505 eV)
   168     168      1.000      -0.242 au  H             1.00      1 S              10
                        (      -6.582 eV)
   169     169       --         0.113 au  H             1.00      2 S              10
                        (       3.073 eV)
   170     170       --         1.599 au  H             1.00      3 S              10
                        (      43.500 eV)
   171     171       --         0.445 au  H             1.00      1 P:x            10
                        (      12.103 eV)
   172     172       --         0.445 au  H             1.00      1 P:y            10
                        (      12.103 eV)
   173     173       --         0.445 au  H             1.00      1 P:z            10
                        (      12.103 eV)
   174     174       --         2.628 au  H             1.00      1 D:z2           10
                        (      71.505 eV)
   175     175       --         2.628 au  H             1.00      1 D:x2-y2        10
                        (      71.505 eV)
   176     176       --         2.628 au  H             1.00      1 D:xy           10
                        (      71.505 eV)
   177     177       --         2.628 au  H             1.00      1 D:xz           10
                        (      71.505 eV)
   178     178       --         2.628 au  H             1.00      1 D:yz           10
                        (      71.505 eV)



 ================================
 (Slater-type)  F U N C T I O N S  ***  (Basis and Fit)  ***
 ================================
  

 Atom Type    1  (O)
 ==============

 Valence Basis Sets:  10
 -----------------------
   1 S    9.800000
   1 S    6.800000
   2 S    7.580000
   2 S    2.880000
   2 S    1.720000
   2 P    4.080000
   2 P    2.080000
   2 P    1.120000
   3 D    2.000000
   4 F    3.000000

 Charge Fitting Sets (for the computation of the Coulomb Potential):  22
 -----------------------------------------------------------------------
   1 S   19.600000
   2 S   22.600000
   2 S   15.680000
   2 S   10.890000
   2 S    7.560000
   3 S    7.690000
   3 S    5.650000
   3 S    4.150000
   3 S    3.050000
   3 S    2.240000
   2 P   12.860000
   2 P    7.680000
   3 P    6.780000
   3 P    4.390000
   3 P    2.840000
   3 D    8.800000
   3 D    5.580000
   3 D    3.530000
   3 D    2.240000
   4 F    6.200000
   4 F    3.700000
   5 G    4.500000

 Atom Type    2  (S)
 ==============

 Valence Basis Sets:  14
 -----------------------
   1 S   19.400000
   1 S   14.350000
   2 S    5.900000
   2 S    4.250000
   2 P    8.050000
   2 P    4.550000
   3 S    3.450000
   3 S    2.250000
   3 S    1.500000
   3 P    2.650000
   3 P    1.600000
   3 P    1.000000
   3 D    2.100000
   4 F    2.100000

 Charge Fitting Sets (for the computation of the Coulomb Potential):  30
 -----------------------------------------------------------------------
   1 S   38.800000
   1 S   23.350000
   2 S   26.020000
   2 S   17.570000
   3 S   17.420000
   3 S   12.500000
   3 S    8.980000
   4 S    8.520000
   4 S    6.360000
   4 S    4.750000
   5 S    4.420000
   5 S    3.390000
   5 S    2.600000
   5 S    2.000000
   2 P   27.450000
   3 P   20.250000
   4 P   14.920000
   4 P    8.780000
   5 P    6.520000
   5 P    4.040000
   5 P    2.500000
   3 D   20.900000
   4 D   14.560000
   4 D    8.130000
   5 D    5.740000
   5 D    3.390000
   5 D    2.000000
   4 F    5.000000
   4 F    3.000000
   5 G    3.620000

 Atom Type    3  (C)
 ==============

 Valence Basis Sets:  10
 -----------------------
   1 S    7.680000
   1 S    5.000000
   2 S    1.280000
   2 S    2.100000
   2 S    4.600000
   2 P    0.820000
   2 P    1.480000
   2 P    2.940000
   3 D    2.200000
   4 F    3.300000

 Charge Fitting Sets (for the computation of the Coulomb Potential):  22
 -----------------------------------------------------------------------
   1 S   15.360000
   2 S   17.530000
   2 S   12.070000
   2 S    8.310000
   2 S    5.730000
   3 S    5.780000
   3 S    4.220000
   3 S    3.080000
   3 S    2.250000
   3 S    1.640000
   2 P    9.880000
   2 P    5.800000
   3 P    5.050000
   3 P    3.230000
   3 P    2.060000
   3 D    7.200000
   3 D    4.400000
   3 D    2.690000
   3 D    1.640000
   4 F    5.400000
   4 F    3.550000
   5 G    4.500000

 Atom Type    4  (H)
 ==============

 Valence Basis Sets:   5
 -----------------------
   1 S    0.690000
   1 S    0.920000
   1 S    1.580000
   2 P    1.250000
   3 D    2.500000

 Charge Fitting Sets (for the computation of the Coulomb Potential):  11
 -----------------------------------------------------------------------
   1 S    3.160000
   1 S    2.090000
   1 S    1.380000
   2 S    1.500000
   2 P    4.000000
   2 P    2.650000
   2 P    1.750000
   3 D    4.000000
   3 D    2.500000
   4 F    3.000000
   5 G    4.000000


 BAS: List of all Elementary Cartesian Basis Functions
 =====================================================

 The numbering in the list below (to the right of the function characteristics) is referred
 to in print-outs of MO eigenvectors and Mulliken populations in the BAS representation
 (as contrasted to the SFO representation).

 Notes:
 1. The functions are characterized by a polynomial prefactor (powers of x,y,z and r) and
    an exponential decay factor alpha.
 2. Since the basis sets are specific for an atom TYPE, the individual functions occur on
    all atoms of that type.
 3. The word 'Core' in the left margin signals that it is a Core Function (CF) : not a
    degree of freedom in the valence set, but only used to ensure orthogonalization of
    the other valence basis functions on the frozen Core Orbitals.


 (power of) X  Y  Z  R     Alpha  on Atom
            ==========     =====     ==========

 O                                    1
                                  ---------------------------------------------------------------------------
            0  0  0  0     9.800      1
            0  0  0  0     6.800      2
            0  0  0  1     7.580      3
            0  0  0  1     2.880      4
            0  0  0  1     1.720      5
            1  0  0  0     4.080      6
            0  1  0  0     4.080      7
            0  0  1  0     4.080      8
            1  0  0  0     2.080      9
            0  1  0  0     2.080     10
            0  0  1  0     2.080     11
            1  0  0  0     1.120     12
            0  1  0  0     1.120     13
            0  0  1  0     1.120     14
            2  0  0  0     2.000     15
            1  1  0  0     2.000     16
            1  0  1  0     2.000     17
            0  2  0  0     2.000     18
            0  1  1  0     2.000     19
            0  0  2  0     2.000     20
            3  0  0  0     3.000     21
            2  1  0  0     3.000     22
            2  0  1  0     3.000     23
            1  2  0  0     3.000     24
            1  1  1  0     3.000     25
            1  0  2  0     3.000     26
            0  3  0  0     3.000     27
            0  2  1  0     3.000     28
            0  1  2  0     3.000     29
            0  0  3  0     3.000     30

 S                                    2
                                  ---------------------------------------------------------------------------
            0  0  0  0    19.400     31
            0  0  0  0    14.350     32
            0  0  0  1     5.900     33
            0  0  0  1     4.250     34
            1  0  0  0     8.050     35
            0  1  0  0     8.050     36
            0  0  1  0     8.050     37
            1  0  0  0     4.550     38
            0  1  0  0     4.550     39
            0  0  1  0     4.550     40
            0  0  0  2     3.450     41
            0  0  0  2     2.250     42
            0  0  0  2     1.500     43
            1  0  0  1     2.650     44
            0  1  0  1     2.650     45
            0  0  1  1     2.650     46
            1  0  0  1     1.600     47
            0  1  0  1     1.600     48
            0  0  1  1     1.600     49
            1  0  0  1     1.000     50
            0  1  0  1     1.000     51
            0  0  1  1     1.000     52
            2  0  0  0     2.100     53
            1  1  0  0     2.100     54
            1  0  1  0     2.100     55
            0  2  0  0     2.100     56
            0  1  1  0     2.100     57
            0  0  2  0     2.100     58
            3  0  0  0     2.100     59
            2  1  0  0     2.100     60
            2  0  1  0     2.100     61
            1  2  0  0     2.100     62
            1  1  1  0     2.100     63
            1  0  2  0     2.100     64
            0  3  0  0     2.100     65
            0  2  1  0     2.100     66
            0  1  2  0     2.100     67
            0  0  3  0     2.100     68

 C                                    3    4
                                  ---------------------------------------------------------------------------
            0  0  0  0     7.680     69   99
            0  0  0  0     5.000     70  100
            0  0  0  1     1.280     71  101
            0  0  0  1     2.100     72  102
            0  0  0  1     4.600     73  103
            1  0  0  0     0.820     74  104
            0  1  0  0     0.820     75  105
            0  0  1  0     0.820     76  106
            1  0  0  0     1.480     77  107
            0  1  0  0     1.480     78  108
            0  0  1  0     1.480     79  109
            1  0  0  0     2.940     80  110
            0  1  0  0     2.940     81  111
            0  0  1  0     2.940     82  112
            2  0  0  0     2.200     83  113
            1  1  0  0     2.200     84  114
            1  0  1  0     2.200     85  115
            0  2  0  0     2.200     86  116
            0  1  1  0     2.200     87  117
            0  0  2  0     2.200     88  118
            3  0  0  0     3.300     89  119
            2  1  0  0     3.300     90  120
            2  0  1  0     3.300     91  121
            1  2  0  0     3.300     92  122
            1  1  1  0     3.300     93  123
            1  0  2  0     3.300     94  124
            0  3  0  0     3.300     95  125
            0  2  1  0     3.300     96  126
            0  1  2  0     3.300     97  127
            0  0  3  0     3.300     98  128

 H                                    5    6    7    8    9   10
                                  ---------------------------------------------------------------------------
            0  0  0  0     0.690    129  141  153  165  177  189
            0  0  0  0     0.920    130  142  154  166  178  190
            0  0  0  0     1.580    131  143  155  167  179  191
            1  0  0  0     1.250    132  144  156  168  180  192
            0  1  0  0     1.250    133  145  157  169  181  193
            0  0  1  0     1.250    134  146  158  170  182  194
            2  0  0  0     2.500    135  147  159  171  183  195
            1  1  0  0     2.500    136  148  160  172  184  196
            1  0  1  0     2.500    137  149  161  173  185  197
            0  2  0  0     2.500    138  150  162  174  186  198
            0  1  1  0     2.500    139  151  163  175  187  199
            0  0  2  0     2.500    140  152  164  176  188  200

 Total number of charge fitting functions (nprimf)       658
 Total number of Cartesian basis functions (naos)        200
 Total number of Cartesian core functions  (ncos)          0

 ***************************************************************************************************



                                              ***********************
                                              *  T E C H N I C A L  *
                                              ***********************
  



 =============================================================
 P A R A L L E L I Z A T I O N  and  V E C T O R I Z A T I O N
 =============================================================
  
 Nr of parallel processes:                                8
 Maximum vector length in NumInt loops:                 128



 =====================
 S C F   U P D A T E S
 =====================
  
 Max. nr. of cycles:                               300
 Convergence criterion:                              0.0000010000
   secondary criterion:                              0.0010000000

 Mix parameter (when DIIS does not apply):           0.2000000000
 Mixed ADIIS+SDIIS will be used                  
    Max number of expansion vectors:                10
    Pure ADIIS when Max([F,P]) is above              0.1000000000
    Pure SDIIS when Max([F,P]) is below              0.0010000000
 Automatic ElectronSmearing (in case of problematic SCF convergence) disabled



 =================
 P R E C I S I O N  ***  (General: NumInt, NeglectFunctionTails, ...)  ***
 =================
  

 NumInt:           Target precision:                 6.0000000000
 -------           Initial precision:                6.0000000000
                   Min. precision (optimization):    6.0000000000

 Neglect Functions:          Basis functions:        0.1000000000E-07
 ------------------          Fit functions:          0.1000000000E-07



 ===========================
 L I N E A R   S C A L I N G
 ===========================
  

 Cut-off radii density fit:                        0.1000000000E-09
 Overlap cut-off criterion AO matrix elements:     0.1000000000E-07
 Cut-offs for Coulomb potential and fitted density:0.1000000000E-09
 Cut-off criterion for Coulomb multipole terms:    0.1000000000E-09
 Progressive Convergence parameter:                 0.000000000    
 ***************************************************************************************************



                                            ***************************
                                            *  C O M P U T A T I O N  *
                                            ***************************
  



 ==============================
 Double group spinor symmetries  ***  (Spin-Orbit)  ***
 ==============================
  

 The double group Lowdins are spinors adapted to the irreducible representations
 of the double group. These double group Lowdins are linear combinations of
 products of the single group Lowdins and the spinfunctions. The single group
 Lowdins are  orthonormalized symmetrized fragment orbitals (SFOs).
 The complex coefficients that are used in the linear combinations are also
 known as Clebsch-Gordan coefficients.
 The spin functions (alpha,beta) span irrep e1/2


          A * e 1/2 :      A1/2

  A1/2:1 = A.alpha
  A1/2:1 = A.beta

 The table summarizes which one-electron orbital irreps (single group) couple
 with spin to which spinor irreps (double group).
 The Clebsch-Gordan series for each direct product: orbital irrep times e1/2.
                  A
            -------
  A1/2           X


 dimension (equal to the max. nr. of electrons per spinor) of the double group irreps
 ------------------------------------------------------------------------------------
  A1/2           1

 Number of elements of the density matrix on this node (used, total):      2811     20100



 ===========================================
 Numerical Integration : Fuzzy Cells (Becke)
 ===========================================
  
 Becke grid quality: GOOD           
  
 Lebedev angular grid order:             min:  11 max:  31
 Nr. of radial points:                   min:  54 max:  72

 Total nr. of points:     124859
 Nr. of blocks:              976
 Block length:               128
 Nr. of dummy points:         69


 Test of Precision of the Numerical Integration Grid
 ===================================================

 Integral of the Total Core Density:                   0.00000000000000



 ========================
 Density Fitting (zlmFit)
 ========================
  
 ZlmFit Fit Quality: GOOD           
  
 Max L-expansion:                        min:   8 max:   9
 Nr. of radial interpolation points:     min:  78 max: 108



 ======================
 RI Hartree-Fock Scheme
 ======================
  
 Fit Set Quality     : GOOD
 Threshold Quality   : GOOD
 Integration Quality : GOOD
 Fit Generation Method : AUTO
 Response Quality    : DEFAULT
 Is Range Separated  :  F
 
 RIHartreeFock Dependency: number of modified vectors: 8



 =====
 S C F  ***  ScaSCF  ***
 =====
  
 Initial density matrix is calculated as sum of fragments

 CYCLE    1
 SCF Error: norm([F,P])=      7.479787654169, max([F,P])=      1.265057252577
 orbitals (Q,E):
 ---------------
 A1/2 :33...52       ( 1.00    -0.5506)  ( 1.00    -0.5502)  ( 1.00    -0.5225)  ( 1.00    -0.5208)
                     ( 1.00    -0.4858)  ( 1.00    -0.4856)  ( 1.00    -0.4279)  ( 1.00    -0.4255)
                     ( 1.00    -0.3350)  ( 1.00    -0.3349)  ( 0.00    -0.0636)  ( 0.00    -0.0634)
                     ( 0.00    -0.0618)  ( 0.00    -0.0613)  ( 0.00    -0.0534)  ( 0.00    -0.0532)
                     ( 0.00    -0.0338)  ( 0.00    -0.0334)  ( 0.00     0.0004)  ( 0.00     0.0006)

 CYCLE    2
   MIX coefficients:  0.8000  0.2000
 SCF Error: norm([F,P])=      0.758100913902, max([F,P])=      0.114111102661
 orbitals (Q,E):
 ---------------
 A1/2 :33...52       ( 1.00    -0.4955)  ( 1.00    -0.4952)  ( 1.00    -0.4828)  ( 1.00    -0.4807)
                     ( 1.00    -0.4339)  ( 1.00    -0.4337)  ( 1.00    -0.3624)  ( 1.00    -0.3595)
                     ( 1.00    -0.3023)  ( 1.00    -0.3022)  ( 0.00    -0.0386)  ( 0.00    -0.0385)
                     ( 0.00    -0.0377)  ( 0.00    -0.0374)  ( 0.00    -0.0322)  ( 0.00    -0.0321)
                     ( 0.00    -0.0044)  ( 0.00    -0.0042)  ( 0.00     0.0182)  ( 0.00     0.0183)

 CYCLE    3
  SDIIS (wt  0.000): -0.9053  1.9053
 A-DIIS (wt  1.000):  0.0000  1.0000
  DIIS coefficients:  0.0000  1.0000
 SCF Error: norm([F,P])=      0.378302264349, max([F,P])=      0.052773244336
 orbitals (Q,E):
 ---------------
 A1/2 :33...52       ( 1.00    -0.3664)  ( 1.00    -0.3651)  ( 1.00    -0.3647)  ( 1.00    -0.3632)
                     ( 1.00    -0.3180)  ( 1.00    -0.3171)  ( 1.00    -0.2034)  ( 1.00    -0.1996)
                     ( 1.00    -0.1777)  ( 1.00    -0.1773)  ( 0.00     0.0213)  ( 0.00     0.0214)
                     ( 0.00     0.0381)  ( 0.00     0.0385)  ( 0.00     0.0491)  ( 0.00     0.0492)
                     ( 0.00     0.0670)  ( 0.00     0.0670)  ( 0.00     0.0744)  ( 0.00     0.0745)

 CYCLE    4
  SDIIS (wt  0.000):  0.1905  0.3423  0.4672
 A-DIIS (wt  1.000):  0.0000  0.6562  0.3438
  DIIS coefficients:  0.0000  0.6562  0.3438
 SCF Error: norm([F,P])=      0.581756945325, max([F,P])=      0.100543963111
 orbitals (Q,E):
 ---------------
 A1/2 :33...52       ( 1.00    -0.4114)  ( 1.00    -0.4111)  ( 1.00    -0.3946)  ( 1.00    -0.3926)
                     ( 1.00    -0.3645)  ( 1.00    -0.3641)  ( 1.00    -0.2832)  ( 1.00    -0.2802)
                     ( 1.00    -0.2412)  ( 1.00    -0.2410)  ( 0.00     0.0162)  ( 0.00     0.0163)
                     ( 0.00     0.0315)  ( 0.00     0.0317)  ( 0.00     0.0402)  ( 0.00     0.0403)
                     ( 0.00     0.0597)  ( 0.00     0.0597)  ( 0.00     0.0665)  ( 0.00     0.0665)

 CYCLE    5
  SDIIS (wt  0.844): -0.0473  0.3961  0.1620  0.4892
 A-DIIS (wt  0.156):  0.0000  0.0000  0.0000  1.0000
  DIIS coefficients: -0.0399  0.3342  0.1367  0.5690
 SCF Error: norm([F,P])=      0.104936679639, max([F,P])=      0.016470908423
 orbitals (Q,E):
 ---------------
 A1/2 :33...52       ( 1.00    -0.4169)  ( 1.00    -0.4165)  ( 1.00    -0.4152)  ( 1.00    -0.4130)
                     ( 1.00    -0.3666)  ( 1.00    -0.3662)  ( 1.00    -0.2833)  ( 1.00    -0.2804)
                     ( 1.00    -0.2420)  ( 1.00    -0.2418)  ( 0.00     0.0100)  ( 0.00     0.0100)
                     ( 0.00     0.0252)  ( 0.00     0.0255)  ( 0.00     0.0355)  ( 0.00     0.0356)
                     ( 0.00     0.0534)  ( 0.00     0.0535)  ( 0.00     0.0595)  ( 0.00     0.0595)

 CYCLE    6
  SDIIS (wt  0.949):  0.0072  0.0494  0.0171  0.3084  0.6180
 A-DIIS (wt  0.051):  0.0000  0.0000  0.0000  0.0980  0.9020
  DIIS coefficients:  0.0068  0.0469  0.0162  0.2977  0.6324
 SCF Error: norm([F,P])=      0.042438172557, max([F,P])=      0.006026225146
 orbitals (Q,E):
 ---------------
 A1/2 :33...52       ( 1.00    -0.4198)  ( 1.00    -0.4195)  ( 1.00    -0.4122)  ( 1.00    -0.4100)
                     ( 1.00    -0.3706)  ( 1.00    -0.3702)  ( 1.00    -0.2884)  ( 1.00    -0.2855)
                     ( 1.00    -0.2468)  ( 1.00    -0.2467)  ( 0.00     0.0115)  ( 0.00     0.0116)
                     ( 0.00     0.0253)  ( 0.00     0.0256)  ( 0.00     0.0346)  ( 0.00     0.0347)
                     ( 0.00     0.0549)  ( 0.00     0.0549)  ( 0.00     0.0608)  ( 0.00     0.0609)

 CYCLE    7
  SDIIS (wt  1.000): -0.0002  0.0021 -0.0041  0.0769  0.2464  0.6789
  DIIS coefficients: -0.0002  0.0021 -0.0041  0.0769  0.2464  0.6789
 SCF Error: norm([F,P])=      0.006239760116, max([F,P])=      0.000933320990
 orbitals (Q,E):
 ---------------
 A1/2 :33...52       ( 1.00    -0.4189)  ( 1.00    -0.4186)  ( 1.00    -0.4120)  ( 1.00    -0.4098)
                     ( 1.00    -0.3695)  ( 1.00    -0.3691)  ( 1.00    -0.2873)  ( 1.00    -0.2844)
                     ( 1.00    -0.2456)  ( 1.00    -0.2454)  ( 0.00     0.0114)  ( 0.00     0.0115)
                     ( 0.00     0.0258)  ( 0.00     0.0261)  ( 0.00     0.0354)  ( 0.00     0.0355)
                     ( 0.00     0.0548)  ( 0.00     0.0548)  ( 0.00     0.0608)  ( 0.00     0.0609)

 CYCLE    8
  SDIIS (wt  1.000): -0.0002 -0.0019 -0.0018  0.0115  0.0560  0.2325  0.7039
  DIIS coefficients: -0.0002 -0.0019 -0.0018  0.0115  0.0560  0.2325  0.7039
 SCF Error: norm([F,P])=      0.001024249049, max([F,P])=      0.000146018018
 orbitals (Q,E):
 ---------------
 A1/2 :33...52       ( 1.00    -0.4191)  ( 1.00    -0.4188)  ( 1.00    -0.4121)  ( 1.00    -0.4100)
                     ( 1.00    -0.3697)  ( 1.00    -0.3693)  ( 1.00    -0.2875)  ( 1.00    -0.2846)
                     ( 1.00    -0.2458)  ( 1.00    -0.2457)  ( 0.00     0.0114)  ( 0.00     0.0115)
                     ( 0.00     0.0257)  ( 0.00     0.0260)  ( 0.00     0.0352)  ( 0.00     0.0353)
                     ( 0.00     0.0547)  ( 0.00     0.0548)  ( 0.00     0.0608)  ( 0.00     0.0608)

 CYCLE    9
  SDIIS (wt  1.000): -0.0001 -0.0007 -0.0002 -0.0012  0.0034  0.0345  0.2514  0.7127
  DIIS coefficients: -0.0001 -0.0007 -0.0002 -0.0012  0.0034  0.0345  0.2514  0.7127
 SCF Error: norm([F,P])=      0.000278464681, max([F,P])=      0.000042867400
 orbitals (Q,E):
 ---------------
 A1/2 :33...52       ( 1.00    -0.4190)  ( 1.00    -0.4188)  ( 1.00    -0.4121)  ( 1.00    -0.4100)
                     ( 1.00    -0.3696)  ( 1.00    -0.3693)  ( 1.00    -0.2875)  ( 1.00    -0.2845)
                     ( 1.00    -0.2458)  ( 1.00    -0.2456)  ( 0.00     0.0114)  ( 0.00     0.0115)
                     ( 0.00     0.0257)  ( 0.00     0.0260)  ( 0.00     0.0352)  ( 0.00     0.0354)
                     ( 0.00     0.0548)  ( 0.00     0.0548)  ( 0.00     0.0608)  ( 0.00     0.0609)

 CYCLE   10
  SDIIS (wt  1.000): -0.0000 -0.0001  0.0000 -0.0012 -0.0019 -0.0015  0.0436  0.2228  0.7384
  DIIS coefficients: -0.0000 -0.0001  0.0000 -0.0012 -0.0019 -0.0015  0.0436  0.2228  0.7384
 SCF Error: norm([F,P])=      0.000059996144, max([F,P])=      0.000007494656
 orbitals (Q,E):
 ---------------
 A1/2 :33...52       ( 1.00    -0.4190)  ( 1.00    -0.4188)  ( 1.00    -0.4121)  ( 1.00    -0.4100)
                     ( 1.00    -0.3696)  ( 1.00    -0.3693)  ( 1.00    -0.2875)  ( 1.00    -0.2845)
                     ( 1.00    -0.2458)  ( 1.00    -0.2456)  ( 0.00     0.0114)  ( 0.00     0.0115)
                     ( 0.00     0.0257)  ( 0.00     0.0260)  ( 0.00     0.0352)  ( 0.00     0.0354)
                     ( 0.00     0.0547)  ( 0.00     0.0548)  ( 0.00     0.0608)  ( 0.00     0.0609)

 CYCLE   11
  SDIIS (wt  1.000): -0.0000  0.0000  0.0000 -0.0001 -0.0002 -0.0007 -0.0064 -0.0095  0.0386  0.9783
  DIIS coefficients: -0.0000  0.0000  0.0000 -0.0001 -0.0002 -0.0007 -0.0064 -0.0095  0.0386  0.9783
 SCF Error: norm([F,P])=      0.000007783984, max([F,P])=      0.000001314649
 orbitals (Q,E):
 ---------------
 A1/2 :33...52       ( 1.00    -0.4190)  ( 1.00    -0.4188)  ( 1.00    -0.4121)  ( 1.00    -0.4100)
                     ( 1.00    -0.3696)  ( 1.00    -0.3693)  ( 1.00    -0.2875)  ( 1.00    -0.2845)
                     ( 1.00    -0.2458)  ( 1.00    -0.2456)  ( 0.00     0.0114)  ( 0.00     0.0115)
                     ( 0.00     0.0257)  ( 0.00     0.0260)  ( 0.00     0.0352)  ( 0.00     0.0354)
                     ( 0.00     0.0547)  ( 0.00     0.0548)  ( 0.00     0.0608)  ( 0.00     0.0609)

 CYCLE   12
  SDIIS (wt  1.000):  0.0000  0.0000  0.0000 -0.0000 -0.0003 -0.0047 -0.0131 -0.0047  0.4801  0.5427
  DIIS coefficients:  0.0000  0.0000  0.0000 -0.0000 -0.0003 -0.0047 -0.0131 -0.0047  0.4801  0.5427
 SCF Error: norm([F,P])=      0.000003724427, max([F,P])=      0.000000546124
 orbitals (Q,E):
 ---------------
 A1/2 :33...52       ( 1.00    -0.4190)  ( 1.00    -0.4188)  ( 1.00    -0.4121)  ( 1.00    -0.4100)
                     ( 1.00    -0.3696)  ( 1.00    -0.3693)  ( 1.00    -0.2875)  ( 1.00    -0.2845)
                     ( 1.00    -0.2458)  ( 1.00    -0.2456)  ( 0.00     0.0114)  ( 0.00     0.0115)
                     ( 0.00     0.0257)  ( 0.00     0.0260)  ( 0.00     0.0352)  ( 0.00     0.0354)
                     ( 0.00     0.0547)  ( 0.00     0.0548)  ( 0.00     0.0608)  ( 0.00     0.0609)

 SCF CONVERGED

 CYCLE   13
 ***************************************************************************************************



                                                *******************
                                                *  R E S U L T S  *
                                                *******************
  
  
 Hartree-Fock exchange energy:  -45.8720840649092
 *** Using FIT density in Focky
  SDIIS (wt  1.000): -0.0000  0.0000  0.0000  0.0000 -0.0002 -0.0020 -0.0022  0.0155  0.1781  0.8108
  DIIS coefficients: -0.0000  0.0000  0.0000  0.0000 -0.0002 -0.0020 -0.0022  0.0155  0.1781  0.8108
 SCF Error: norm([F,P])=      0.000000976474, max([F,P])=      0.000000127789

 Orbital Energies, per Irrep and Spin:
 ======================================
                        Occup              E (au)              E (eV)       Diff (eV) with prev. cycle
                        -----      --------------------        ------       --------------------------
 A1/2
              33        1.000     -0.41901630258964E+00       -11.402               7.80E-07
              34        1.000     -0.41877257853361E+00       -11.395               7.68E-07
              35        1.000     -0.41209479062556E+00       -11.214               4.02E-07
              36        1.000     -0.40995499492329E+00       -11.155               4.47E-07
              37        1.000     -0.36963695813175E+00       -10.058               8.70E-07
              38        1.000     -0.36925979370292E+00       -10.048               8.70E-07
              39        1.000     -0.28746941537715E+00        -7.822              -4.82E-07
              40        1.000     -0.28452052021357E+00        -7.742              -5.24E-07
              41        1.000     -0.24576537161967E+00        -6.688               9.22E-07
              42        1.000     -0.24561038114595E+00        -6.683               8.88E-07
              43        0.000      0.11407465050815E-01         0.310
              44        0.000      0.11464793485211E-01         0.312
              45        0.000      0.25736545226642E-01         0.700
              46        0.000      0.26043724954106E-01         0.709
              47        0.000      0.35246863903404E-01         0.959
              48        0.000      0.35363053468740E-01         0.962
              49        0.000      0.54748606556322E-01         1.490
              50        0.000      0.54785689366886E-01         1.491
              51        0.000      0.60808129917158E-01         1.655
              52        0.000      0.60862757076015E-01         1.656
  
 HOMO :       42 A1/2             -0.24561038114595E+00
 LUMO :       43 A1/2              0.11407465050815E-01
  


 All Electron Calculation, thus no Orbital Energies of the Core Orbitals are calculated


 Fit test: (difference of exact and fit density, squared integrated, result summed over spins)
         Sum-of-Fragments:                             0.00000001022677
         Orthogonalized Fragments:                     0.00001600347841
         SCF:                                          0.00002603544827



 ==========================
 Electron Density at Nuclei
 ==========================
  
 The electron density is calculated at points on a small sphere around the center of a nucleus.
 The printed electron density is the average electron density on these points.
 The radius of the sphere is the printed approximate finite nuclear radius.
 Note: density is calculated in the Dirac picture

         Atom        Nuclear Radius (Angstrom)             Electron Density (a.u.)
         ----        -------------------------             -----------------------
     1)   O                 0.0000345546                              312.86784
     2)   S                 0.0000416234                             2729.16483
     3)   C                 0.0000320678                              126.46064
     4)   C                 0.0000320678                              126.46640
     5)   H                 0.0000181514                                0.48580
     6)   H                 0.0000181514                                0.50468
     7)   H                 0.0000181514                                0.48716
     8)   H                 0.0000181514                                0.48353
     9)   H                 0.0000181514                                0.48742
    10)   H                 0.0000181514                                0.48724



 =======================================
 M U L L I K E N   P O P U L A T I O N S
 =======================================
  
 The survey below gives for each atom:
 a) the total charge (Z minus electrons)
 b) the net spin polarization (nr of electrons spin-A minus spin-B)
 c) for each spin the atomic electron valence density (integrated) per L-value.

 Atom              Charge    Spin density          S         P         D         F
 ----              ------    ------------       ------    ------    ------    ------
 1 O              -0.6615                       3.8700    4.7375    0.0478    0.0062
 2 S               0.6023                       5.6754    9.2262    0.4244    0.0718
 3 C               0.4804                       2.9378    2.5380    0.0416    0.0022
 4 C               0.4658                       2.9418    2.5491    0.0405    0.0028
 5 H              -0.1762                       1.0887    0.0776    0.0099    0.0000
 6 H              -0.1717                       1.0848    0.0797    0.0072    0.0000
 7 H              -0.1078                       1.0229    0.0787    0.0062    0.0000
 8 H              -0.1772                       1.1015    0.0695    0.0061    0.0000
 9 H              -0.1211                       1.0343    0.0794    0.0074    0.0000
 10 H             -0.1330                       1.0470    0.0783    0.0077    0.0000

 Populations of individual BAS functions
 ----------------------------------------
 1 O            0.6700  1.2854  0.0161  1.0181  0.8805  0.2983  0.2949  0.2218  0.8664  0.8867
                0.7787  0.5437  0.5508  0.2963 -0.0054  0.0026  0.0128 -0.0030  0.0132  0.0276
               -0.0014 -0.0034 -0.0061 -0.0030  0.0006  0.0063 -0.0064 -0.0054  0.0113  0.0137
 2 S            0.5459  1.4129  1.5786  0.4438  0.7910  0.7989  0.7908  1.2102  1.2014  1.2100
                0.2186  1.1847  0.2909  0.3443  0.4708  0.3468  0.7259  0.9341  0.5155 -0.1215
                0.0444 -0.0364  0.0424  0.0385  0.1535  0.0255  0.1064  0.0582  0.0034  0.0134
                0.0008  0.0031  0.0117  0.0190 -0.0202  0.0025  0.0208  0.0173
 3 C            0.4850  1.5231  0.0966  0.8988 -0.0656 -0.1549 -0.0886 -0.1759  0.8040  0.8098
                0.8267  0.1631  0.1768  0.1771  0.0063  0.0081  0.0085  0.0070  0.0053  0.0064
               -0.0010  0.0011  0.0027  0.0008  0.0002  0.0008  0.0004 -0.0014 -0.0007 -0.0006
 4 C            0.4853  1.5230  0.0976  0.9027 -0.0668 -0.0784 -0.0908 -0.2045  0.7516  0.8045
                0.8408  0.1747  0.1781  0.1731  0.0057  0.0091  0.0076  0.0086  0.0038  0.0057
                0.0022  0.0012  0.0005 -0.0013  0.0002 -0.0002  0.0007 -0.0009 -0.0009  0.0013
 5 H            0.0641  0.7557  0.2689  0.0273  0.0210  0.0293 -0.0046  0.0007  0.0061 -0.0038
                0.0018  0.0098
 6 H            0.1366  0.6560  0.2922  0.0288  0.0235  0.0274  0.0065  0.0011  0.0017 -0.0021
                0.0011 -0.0010
 7 H            0.0010  0.7262  0.2957  0.0231  0.0322  0.0234 -0.0040  0.0029  0.0007  0.0103
                0.0017 -0.0053
 8 H            0.0641  0.7787  0.2587  0.0216  0.0210  0.0269 -0.0054  0.0002  0.0030 -0.0050
                0.0014  0.0119
 9 H            0.0080  0.7379  0.2883  0.0198  0.0330  0.0266 -0.0047  0.0032  0.0006  0.0121
                0.0017 -0.0055
 10 H          -0.0035  0.7801  0.2704  0.0297  0.0214  0.0272  0.0074  0.0018  0.0011 -0.0020
                0.0013 -0.0019

 Gross Charges per Atom (Z minus electrons)
 ==========================================
            -0.6615    0.6023    0.4804    0.4658   -0.1762   -0.1717   -0.1078   -0.1772   -0.1211   -0.1330
 Net Total: -0.00000000


 Atom-Atom Population Matrix (off-diagonal elements not doubled)
 ===============================================================

     1 :     8.3643
     2 :     0.3654   14.6293
     3 :    -0.0465    0.2970    4.3529
     4 :    -0.0241    0.2783   -0.0179    4.3728
     5 :     0.0122   -0.0131    0.2440   -0.0180    1.0489
     6 :    -0.0048   -0.0459    0.3429    0.0126   -0.0703    1.0162
     7 :     0.0002   -0.0368    0.3925   -0.0363   -0.0439   -0.0683    0.8863
     8 :     0.0168   -0.0161   -0.0191    0.2042    0.0206   -0.0113    0.0137    1.1237
     9 :    -0.0051   -0.0255   -0.0265    0.3684   -0.0023    0.0037    0.0012   -0.0730    0.9274
    10 :    -0.0169   -0.0349    0.0004    0.3942   -0.0020   -0.0032   -0.0009   -0.0824   -0.0473    0.9260



 =================================================
 H I R S H F E L D   C H A R G E   A N A L Y S I S
 =================================================
  
 For each fragment: the (numerical) integral of rho(scf) * rho(fragment)/rho(sum-of-fragments)
 (nuclear charges are included, electrons are counted negative)

 The fragments and their ordering are defined in the early G E O M E T R Y output section.
 If you use single-atom fragments, this usually implies that all atoms of the same
 chemical type are grouped together. This may not be the order in which you listed them
 in the input file!

  Fragment                       Charge
 ------------------------------------------
    1  O                        -0.3810
    2  S                         0.3118
    3  C                        -0.1385
    4  C                        -0.1371
    5  H                         0.0536
    6  H                         0.0604
    7  H                         0.0566
    8  H                         0.0553
    9  H                         0.0567
   10  H                         0.0621

 Sum of these charges =         -0.00003935
 (accuracy NumInt/Tails)



 =============================
 V O R O N O I   C H A R G E S
 =============================
  
 For each atom: the (numerical) integral of the total electronic charge density in its Voronoi cell,
 i.e. the region of space that is closer to that atom than to any other atom.
 (cf. Wigner-Seitz cells in crystals)

 Within the Voronoi cell the subintegrals over the atomic sphere and the remaining part are evaluated
 separately to give the numbers of electrons (negative charge) in these regions.
 The net total charge in the cell (including the nuclear charge) is also given.

 Values are provided for
    a) the Initial (sum-of-fragments) density
    b) the Orthogonalized-Fragments density
    c) the SCF density
    d) the Voronoi Deformation Density (VDD): the difference SCF-Initial for the complete atomic cell

  Atom                Initial                    OrthFrag                   SCF
             Sphere RestCell NetTotal   Sphere RestCell NetTotal   Sphere RestCell NetTotal      VDD
 -------     ------------------------   ------------------------   ------------------------    -----
    1 O      -3.659   -4.819   -0.478   -3.842   -4.498   -0.340   -3.711   -5.192   -0.903   -0.425
    2 S     -10.049   -4.939    1.012  -10.132   -5.150    0.718  -10.027   -4.680    1.293    0.281
    3 C      -2.108   -2.538    1.354   -2.216   -2.779    1.005   -2.132   -2.642    1.226   -0.128
    4 C      -2.108   -2.538    1.354   -2.216   -2.779    1.005   -2.133   -2.639    1.229   -0.126
    5 H      -0.087   -1.457   -0.544   -0.111   -1.289   -0.400   -0.130   -1.353   -0.483    0.061
    6 H      -0.087   -1.457   -0.544   -0.110   -1.299   -0.409   -0.131   -1.339   -0.470    0.074
    7 H      -0.087   -1.453   -0.540   -0.112   -1.277   -0.389   -0.130   -1.346   -0.475    0.064
    8 H      -0.087   -1.450   -0.537   -0.111   -1.285   -0.396   -0.130   -1.346   -0.476    0.062
    9 H      -0.087   -1.447   -0.534   -0.112   -1.274   -0.385   -0.130   -1.344   -0.474    0.060
   10 H      -0.087   -1.457   -0.544   -0.110   -1.299   -0.409   -0.130   -1.338   -0.468    0.076
 ---------------------------------------------------------------------------------------------------
 Total NetCharge:              -0.000                     -0.000                     -0.000    0.000
 (accuracy NumInt/Tails)

 Remark: the 'NetTotal' Voronoi charges often do not match the Mulliken and/or Hirshfeld charges very
 well. This is caused by the fact that chemically different atoms are not treated in accordance with
 their relative sizes. (Voronoi cells are defined by boundary planes halfway between the atoms.)
 However, the CHANGES in charge, comparing 'Initial' to 'SCF' for instance, do give a fair indication
 of the flow of charge caused by the relaxation from sum-of-fragments to self-consistency.

 Warning: the absolute accuracy of the VDD charges obtained using the Fuzzy Cells (Becke) integration
 scheme is much poorer than the one obtained with an 'equivalent' Voronoi integration grid. 



 =================================================================
 M U L T I P O L E   D E R I V E D   C H A R G E   A N A L Y S I S
 =================================================================

 This charge analysis uses the atomic multipoles (obtained from the fitted density) up to some level X,
 and reconstructs these multipoles exactly (up to level X) by distributing charges over all atoms.
 This is achieved by using Lagrange multipliers and a weight function to keep the multipoles local.

 Dummy atoms can be included (by setting INCDUM in MDC-block to 1) to obtain a fractional charge.
 This is generally useful and necessary only for small symmetrical molecules, when there are not
 enough degrees of freedom to reconstruct the multipoles.

 Since the atomic multipoles are reconstructed up to level X,
 the molecular multipoles are represented also up to level X.
 The recommended level is to reconstruct up to quadrupole : -> MDC-q charges.

 See: M. Swart, P.Th. van Duijnen, J.G. Snijders, J.Comput.Chem., (2001), p. 79-88.

 ------------------------------------------------------------- 
 Atomic electronic multipole moments from SCF equations (a.u.)
 ------------------------------------------------------------- 

   atom        charge        dip-x     dip-y     dip-z      quad-xx   quad-xy   quad-xz   quad-yy   quad-yz   quad-zz
 --------------------------------------------------------------------------------------------------------------------
    1 O     -0.913318     0.003626  0.114347 -0.125738    -0.245488 -0.004661 -0.000512 -0.402702 -0.149374  0.648190
    2 S      1.271086    -0.000959  1.036304 -0.307849     0.664497  0.000387 -0.000639 -1.644024  0.213007  0.979527
    3 C     -0.005984     0.315260  0.218041  0.167627    -0.095250 -0.181686 -0.136494 -0.066686 -0.096619  0.161936
    4 C     -0.004206    -0.309944  0.215781  0.168243    -0.091532  0.182547  0.134494 -0.071401 -0.094501  0.162933
    5 H     -0.066575     0.017269  0.015219  0.030497    -0.085063 -0.014166 -0.025396 -0.111915 -0.066404  0.196978
    6 H     -0.054415     0.037821  0.005205 -0.004195     0.115563 -0.080915 -0.076983 -0.079073  0.023786 -0.036490
    7 H     -0.054781     0.007622  0.024962 -0.001191    -0.084821 -0.032159 -0.002047  0.189493 -0.027479 -0.104672
    8 H     -0.064462    -0.020428  0.017898  0.032946    -0.085382  0.012019  0.018438 -0.114288 -0.065714  0.199670
    9 H     -0.055119    -0.003878  0.025745 -0.000374    -0.084041  0.034140  0.000763  0.189407 -0.028291 -0.105366
   10 H     -0.052226    -0.042588  0.008832 -0.006414     0.124489  0.079468  0.083614 -0.086021  0.025220 -0.038468

 --------------------------------------- 
 Multipole derived atomic charges (a.u.)
 --------------------------------------- 

 The MDC-m charges are just the Monopole terms in the multipole expansion, while for the MDC-d charges
 also the Dipoles are reconstructed. The usually preferred charges are the MDC-q charges.
 These reconstruct the Monopoles, Dipoles and Quadrupoles (both atomic AND molecular).

        Atom    Level:     MDC-m        MDC-d        MDC-q
 ---------------------------------------------------------
     1     O           -0.913318    -0.591947    -0.429023
     2     S            1.271086     0.453872     0.416783
     3     C           -0.005984    -0.099387    -0.906176
     4     C           -0.004206    -0.099565    -0.995777
     5     H           -0.066575    -0.004241     0.291175
     6     H           -0.054415     0.033744     0.316555
     7     H           -0.054781     0.136442     0.310027
     8     H           -0.064462    -0.001381     0.318575
     9     H           -0.055119     0.137398     0.333614
    10     H           -0.052226     0.035065     0.344246

 ------------------------------------------------ 
 Average absolute deviations in atomic multipoles
 ------------------------------------------------ 

 Stated here are the average differences between the atomic multipoles
 and the reconstructed atomic multipoles (from the distributed charges).
 If these values are not zero, this means there are not enough degrees of freedom,
 to be able to reconstruct the atomic multipoles. (This usually happens only
 for small and/or highly symmetric molecules). If this is the case, one could add
 dummy atoms as extra point charges (and setting INCDUM in MDC-block to 1).

 Level:                                 MDC-d        MDC-q
 ---------------------------------------------------------
 Charge   (a.u.)                       0.0000       0.0000
 Dipole   (Debye)                      0.0000       0.0000
 Quad.    (a.u.)                       0.2386       0.0000

 --------------------------------------- 
 Represented molecular multipole moments
 --------------------------------------- 

 Given here are the Molecular multipole moments from the atomic charges, and from the Fit Density.
 Note that the atomic charges represent the latter, NOT the ones from the Exact density.

            Q (a.u.)             Dipole moment (Debye)                                          Quadrupole moment (a.u.)
                                 x         y         z              xx        xy        xz        yy        yz        zz
------------------------------------------------------------------------------------------------------------------------
MDC-m        -0.0000       -0.0466   -3.9218    4.3456         -5.2365    0.0149   -0.1284    3.0362   -8.6364    2.2003
MDC-d        -0.0000       -0.0370    0.3543    4.2275         -2.3274    0.0036   -0.1118   -1.3882    0.5412    3.7156
MDC-q        -0.0000       -0.0370    0.3543    4.2275         -0.4403    0.0032   -0.1305   -5.1978    0.2419    5.6381
 
Fit.Dens.    -0.0000       -0.0370    0.3543    4.2275         -0.4403    0.0007   -0.1329   -5.1978    0.1088    5.6381



 =============
 Dipole Moment  ***  (Debye)  ***
 =============
  
 Vector   :        -0.03698867      0.35538721      4.22890506
 Magnitude:         4.24397293

 This molecular dipole moment is calculated with analytic integration



 =========================================
 Quadrupole Moment (Buckingham convention)  ***  (a.u.)  ***
 =========================================
  
      quad-xx        quad-xy        quad-xz        quad-yy        quad-yz        quad-zz
     -0.43993293    -0.00182142    -0.13525984    -5.20138001    -0.02244382     5.64131294

 This molecular quadrupole moment is calculated with analytic integration



 ===========================
 B O N D I N G   E N E R G Y  ***  (decomposition)  ***
 ===========================
  
*** IMPORTANT NOTE ***

The bond energy is computed as an energy difference between molecule and
fragments. In particular when the fragments are single atoms, they are usually
computed as SPHERICALLY SYMMETRIC and SPIN-RESTRICTED. Obviously, this usually
does NOT represent the true atomic groundstate.

To obtain the 'real' bond energy, (atomic) correction terms must be applied
for the true (multiplet) fragment ground state. See ref: E.J.Baerends,
V.Branchadell, M.Sodupe, Chem.Phys.Lett.265 (1997) 481

General theoretical background on the bond energy decomposition scheme used
here (Morokuma-Ziegler) can be found in the review paper:
F.M. Bickelhaupt and E.J. Baerends,
"Kohn-Sham Density Functional Theory: Predicting and Understanding Chemistry"
In: Rev. Comput. Chem.; Lipkowitz, K. B. and Boyd, D. B., Eds.;
Wiley-VCH: New York, 2000, Vol. 15, 1-86.

Symbols used in the Bickelhaupt-Baerends (BB) paper are given below to make
the direct connection to that paper, where detailed explanations can be found
on the meaning of the various terms.
The Spin-Orbit term is calculated as the expectation value of the spin-orbit
 operator summed over all occupied spinors.


                                                   hartree              eV         kcal/mol           kJ/mol
                                      --------------------     -----------       ----------      -----------
  pauli hf:                              0.512743741147840         13.9525           321.75          1346.21
  elstat hf:                            -0.856703648682918        -23.3121          -537.59         -2249.28

Pauli Repulsion
  Kinetic (Delta T^0):                  16.366933694903754        445.3669         10270.41         42971.38
  Delta V^Pauli Coulomb:                -8.230390815409161       -223.9603         -5164.65        -21608.89
  Delta V^Pauli Hybrid-X:               -1.417987267539452        -38.5854          -889.80         -3722.93
  Delta V^Pauli Hybrid-C:               -0.163561256489399         -4.4507          -102.64          -429.43
  Delta V^Pauli HF-Exchange:            -0.343959907535078         -9.3596          -215.84          -903.07
                                      --------------------     -----------       ----------      -----------
  Total Pauli Repulsion:                 6.211034447930664        169.0108          3897.48         16307.07
 (Total Pauli Repulsion =
  Delta E^Pauli in BB paper)

Steric Interaction
  Pauli Repulsion (Delta E^Pauli):       6.211034447930664        169.0108          3897.48         16307.07
  Electrostatic Interaction:            -1.330657627082334        -36.2090          -835.00         -3493.64
 (Electrostatic Interaction =
  Delta V_elstat in the BB paper)
                                      --------------------     -----------       ----------      -----------
  Total Steric Interaction:              4.880376820848330        132.8018          3062.48         12813.43
 (Total Steric Interaction =
  Delta E^0 in the BB paper)

Orbital Interactions
  A:                                    -6.597842193746773       -179.5364         -4140.21        -17322.63
  (Hybrid part) HF exchange:            -0.492925947453482        -13.4132          -309.32         -1294.18
  Spin-Orbit:                           -0.068192269103331         -1.8556           -42.79          -179.04
                                      --------------------     -----------       ----------      -----------
  Total Orbital Interactions:           -7.158960410303588       -194.8052         -4492.32        -18795.85

Alternative Decomposition Orb.Int.
  Kinetic:                             -14.153265734197342       -385.1300         -8881.31        -37159.39
  Coulomb:                               7.414739319619659        201.7653          4652.82         19467.40
  XC+HF:                                -0.352241726622572         -9.5850          -221.04          -924.81
  XC only:                               0.140684220830910          3.8282            88.28           369.37
  HF Orbital:                           -0.492925947453482        -13.4132          -309.32         -1294.18
  Spin-Orbit:                           -0.068192269103331         -1.8556           -42.79          -179.04
                                      --------------------     -----------       ----------      -----------
  Total Orbital Interactions:           -7.158960410303587       -194.8052         -4492.32        -18795.85

  Residu (E=Steric+OrbInt+Res):         -0.000001861674328         -0.0001            -0.00            -0.00
  Dispersion Energy:                    -0.006300642876169         -0.1714            -3.95           -16.54

Total Bonding Energy:                   -2.284886094005755        -62.1749         -1433.79         -5998.97


Summary of Bonding Energy (energy terms are taken from the energy decomposition above)
======================================================================================

  Electrostatic Energy:                 -1.330657627082334        -36.2090          -835.00         -3493.64
  Kinetic Energy:                        2.213667960706411         60.2370          1389.10          5811.98
  Coulomb (Steric+OrbInt) Energy:       -0.815653357463829        -22.1951          -511.83         -2141.50
  XC Energy:                            -2.277750158186501        -61.9807         -1429.31         -5980.23
  Spin-Orbit:                           -0.068192269103331         -1.8556           -42.79          -179.04
  Dispersion Energy:                    -0.006300642876169         -0.1714            -3.95           -16.54
                                      --------------------     -----------       ----------      -----------
  Total Bonding Energy:                 -2.284886094005754        -62.1749         -1433.79         -5998.97


Correction terms (incorporated in energies above; only for test purposes):

1. Indication of fit-quality: 1st-order fit-correction used in the energy (hartree):   0.0000673780
2. Electrostatic (Fit correction):   0.0000000000



 =======================================================================
 Electrostatic potential at the Nuclei due to electrons and other nuclei
 =======================================================================
  
         Atom                  Potential
         ----                  ---------
     1)   O                  22.45150740
     2)   S                  59.52573451
     3)   C                  14.75251450
     4)   C                  14.75256944
     5)   H                   1.07349199
     6)   H                   1.08172563
     7)   H                   1.07920283
     8)   H                   1.07117230
     9)   H                   1.07902434
    10)   H                   1.07771174
 Mulliken charges used for AMS results%charges...


    =====================
     CALCULATION RESULTS
    =====================

Energy (hartree)            -2.28488609


--------------
Atomic charges
--------------
  Index   Atom    Charge
      1      O   -0.6615
      2      S    0.6023
      3      C    0.4804
      4      C    0.4658
      5      H   -0.1762
      6      H   -0.1717
      7      H   -0.1078
      8      H   -0.1772
      9      H   -0.1211
     10      H   -0.1330


Dipole moment vector    (Debye):    -0.03698867    0.35538721    4.22890506
              magnitude (Debye):     4.24397293


-----------------------
Molecular orbitals info
-----------------------
n orbitals:              356
n spin:                    1

Note: only printing virtual orbitals with
      energy smaller than HOMO + 100. eV

HOMO (eV):              -6.6834
LUMO (eV):               0.3104
HOMO-LUMO gap (eV):      6.9938

   Index   Energy (eV)    Occupation
     238       90.6621         0.000       
     237       90.6561         0.000       
     236       88.4632         0.000       
     235       88.4225         0.000       
     234       84.7272         0.000       
     233       84.7208         0.000       
     232       83.6901         0.000       
     231       83.6782         0.000       
     230       83.2972         0.000       
     229       83.2956         0.000       
     228       82.3450         0.000       
     227       82.3430         0.000       
     226       80.9927         0.000       
     225       80.9869         0.000       
     224       79.4354         0.000       
     223       79.4266         0.000       
     222       79.1355         0.000       
     221       79.1267         0.000       
     220       78.7783         0.000       
     219       78.7765         0.000       
     218       78.5831         0.000       
     217       78.5812         0.000       
     216       77.2899         0.000       
     215       77.2880         0.000       
     214       76.4748         0.000       
     213       76.4689         0.000       
     212       76.3843         0.000       
     211       76.3831         0.000       
     210       72.7039         0.000       
     209       72.6947         0.000       
     208       70.6439         0.000       
     207       70.6423         0.000       
     206       67.2719         0.000       
     205       67.2682         0.000       
     204       65.3985         0.000       
     203       65.3926         0.000       
     202       64.5889         0.000       
     201       64.5841         0.000       
     200       62.7883         0.000       
     199       62.7831         0.000       
     198       61.9213         0.000       
     197       61.9189         0.000       
     196       61.6481         0.000       
     195       61.6353         0.000       
     194       60.7965         0.000       
     193       60.7925         0.000       
     192       60.6019         0.000       
     191       60.5935         0.000       
     190       59.6550         0.000       
     189       59.6519         0.000       
     188       59.0569         0.000       
     187       59.0418         0.000       
     186       56.3217         0.000       
     185       56.3140         0.000       
     184       55.8476         0.000       
     183       55.8319         0.000       
     182       54.3291         0.000       
     181       54.3018         0.000       
     180       52.9734         0.000       
     179       52.9554         0.000       
     178       52.3007         0.000       
     177       52.2888         0.000       
     176       51.8214         0.000       
     175       51.8162         0.000       
     174       50.7163         0.000       
     173       50.7115         0.000       
     172       49.6838         0.000       
     171       49.6567         0.000       
     170       47.0898         0.000       
     169       47.0871         0.000       
     168       46.0502         0.000       
     167       46.0469         0.000       
     166       44.7651         0.000       
     165       44.7436         0.000       
     164       43.8976         0.000       
     163       43.8945         0.000       
     162       43.6482         0.000       
     161       43.6409         0.000       
     160       41.6982         0.000       
     159       41.6901         0.000       
     158       41.3434         0.000       
     157       41.2910         0.000       
     156       39.9158         0.000       
     155       39.9020         0.000       
     154       39.3065         0.000       
     153       39.3047         0.000       
     152       38.6512         0.000       
     151       38.6270         0.000       
     150       38.2699         0.000       
     149       38.2661         0.000       
     148       37.0182         0.000       
     147       37.0164         0.000       
     146       36.6057         0.000       
     145       36.5926         0.000       
     144       35.5827         0.000       
     143       35.5783         0.000       
     142       34.2906         0.000       
     141       34.2801         0.000       
     140       33.2473         0.000       
     139       33.2425         0.000       
     138       32.1966         0.000       
     137       32.1559         0.000       
     136       31.4925         0.000       
     135       31.4895         0.000       
     134       30.5216         0.000       
     133       30.4838         0.000       
     132       29.5440         0.000       
     131       29.5422         0.000       
     130       29.1372         0.000       
     129       29.1262         0.000       
     128       29.0553         0.000       
     127       29.0521         0.000       
     126       27.8628         0.000       
     125       27.8581         0.000       
     124       26.7819         0.000       
     123       26.7770         0.000       
     122       26.4455         0.000       
     121       26.4384         0.000       
     120       25.5805         0.000       
     119       25.5656         0.000       
     118       23.2527         0.000       
     117       23.2431         0.000       
     116       22.8524         0.000       
     115       22.8466         0.000       
     114       20.4564         0.000       
     113       20.4460         0.000       
     112       20.0687         0.000       
     111       20.0628         0.000       
     110       20.0408         0.000       
     109       20.0036         0.000       
     108       19.5702         0.000       
     107       19.5649         0.000       
     106       18.9772         0.000       
     105       18.9553         0.000       
     104       17.6993         0.000       
     103       17.6825         0.000       
     102       17.2608         0.000       
     101       17.2575         0.000       
     100       15.2530         0.000       
      99       15.2454         0.000       
      98       13.5736         0.000       
      97       13.5676         0.000       
      96       13.4912         0.000       
      95       13.4855         0.000       
      94       12.5385         0.000       
      93       12.5335         0.000       
      92       12.1760         0.000       
      91       12.1690         0.000       
      90       11.9824         0.000       
      89       11.9802         0.000       
      88       11.7323         0.000       
      87       11.7261         0.000       
      86       11.6347         0.000       
      85       11.6281         0.000       
      84       11.1796         0.000       
      83       11.1758         0.000       
      82        9.8931         0.000       
      81        9.8903         0.000       
      80        9.4846         0.000       
      79        9.4838         0.000       
      78        9.3604         0.000       
      77        9.3497         0.000       
      76        7.9649         0.000       
      75        7.9611         0.000       
      74        7.4880         0.000       
      73        7.4862         0.000       
      72        6.3373         0.000       
      71        6.3344         0.000       
      70        5.5653         0.000       
      69        5.5639         0.000       
      68        5.4698         0.000       
      67        5.4605         0.000       
      66        4.6169         0.000       
      65        4.6156         0.000       
      64        4.5371         0.000       
      63        4.5351         0.000       
      62        4.2711         0.000       
      61        4.2665         0.000       
      60        3.1212         0.000       
      59        3.1190         0.000       
      58        2.6428         0.000       
      57        2.6394         0.000       
      56        1.9534         0.000       
      55        1.9471         0.000       
      54        1.7838         0.000       
      53        1.7777         0.000       
      52        1.6562         0.000       
      51        1.6547         0.000       
      50        1.4908         0.000       
      49        1.4898         0.000       
      48        0.9623         0.000       
      47        0.9591         0.000       
      46        0.7087         0.000       
      45        0.7003         0.000       
      44        0.3120         0.000       
      43        0.3104         0.000 < LUMO
      42       -6.6834         1.000 < HOMO
      41       -6.6876         1.000       
      40       -7.7422         1.000       
      39       -7.8224         1.000       
      38      -10.0481         1.000       
      37      -10.0583         1.000       
      36      -11.1554         1.000       
      35      -11.2137         1.000       
      34      -11.3954         1.000       
      33      -11.4020         1.000       
      32      -12.0956         1.000       
      31      -12.1021         1.000       
      30      -13.0450         1.000       
      29      -13.0520         1.000       
      28      -13.0822         1.000       
      27      -13.0908         1.000       
      26      -13.4072         1.000       
      25      -13.4102         1.000       
      24      -17.0075         1.000       
      23      -17.0082         1.000       
      22      -20.4814         1.000       
      21      -20.4831         1.000       
      20      -22.5331         1.000       
      19      -22.5335         1.000       
      18      -28.2262         1.000       
      17      -28.2267         1.000       
      16     -163.1034         1.000       
      15     -163.1034         1.000       
      14     -163.2131         1.000       
      13     -163.2131         1.000       
      12     -164.4128         1.000       
      11     -164.4128         1.000       
      10     -221.1901         1.000       
       9     -221.1901         1.000       
       8     -279.1825         1.000       
       7     -279.1825         1.000       
       6     -279.1888         1.000       
       5     -279.1888         1.000       
       4     -521.6610         1.000       
       3     -521.6610         1.000       
       2    -2432.5693         1.000       
       1    -2432.5693         1.000       

AMS application finished. Exiting.
NORMAL TERMINATION
     Total cpu time:      59.33
  Total system time:       2.15
 Total elapsed time:      66.84
