

 Parallel Execution: Process Information
 ==============================================================================
 Rank   Node Name                              NodeID   MyNodeRank  NodeMaster
    0   u-0-12.local                              0          0          0
    1   u-0-12.local                              1          0          1
    2   u-0-12.local                              2          0          2
    3   u-0-12.local                              3          0          3
 ==============================================================================


May use up to 31200MB of RAM as shared memory on node 0
May use up to 31250MB of RAM as shared memory on node 1
May use up to 31250MB of RAM as shared memory on node 3
May use up to 31250MB of RAM as shared memory on node 2

 *******************************************************************************
 *                                                                             *
 *  --------------------------------                                           *
 *   Amsterdam Modeling Suite (AMS)              2025.104                      *
 *  --------------------------------                                           *
 *                                               r250815 2025-08-15 94ea0506   *
 *                                                                             *
 *                                                                             *
 *                              =================                              *
 *                              |               |                              *
 *                              |     A M S     |                              *
 *                              |               |                              *
 *                              =================                              *
 *                                                                             *
 *                                                                             *
 *   Online information and documentation:  https://www.scm.com/support/       *
 *   E-mail:  support@scm.com   info@scm.com                                   *
 *                                                                             *
 *   Scientific publications using AMS results must be properly referenced     *
 *   See the User Manuals (or the web site) for recommended citations          *
 *   The terms and conditions of the End User License Agreement apply to       *
 *   the use of AMS, https://www.scm.com/license-terms/                        *
 *                                                                             *
 **********************  x86_64_linux_intel / intelmpi  ************************
 
 Licensed to: Dr. Val?rie Vallet / Laboratoire PhLAM UMR 8523 / Villeneuve d'Ascq Cedex / FRANCE 2024-12-20 16:14:47
 SCM User ID: u10325
  
 AMS 2025.104  RunTime: Nov13-2025 11:43:17  ShM Nodes: 4  Procs: 4

 AMS jobname: H2.pbe0-d3bj-gp.x2c-so
 AMS jobid  : 1113461

 Start   directory: /state/partition2/vallet/1073318.phlam-s-sakura/
 Results directory: /home/vallet/ANL/ANL-UVI-structures-Emily/H2/X2C-SO/H2.pbe0-d3bj-gp.x2c-so.results/
 Scratch directory: /state/partition2/vallet/1073318.phlam-s-sakura/amstmp_H2.pbe0-d3bj-gp.x2c-so_kid0.1113461/


 Communication costs MPI_COMM_WORLD:      2.475 usec per message,   0.0164 usec per 8-byte item
 Communication costs for intra-node:      0.144 usec per message,   0.0004 usec per 8-byte item

 RNG seed: -602185669 709535279 1572902525 722910108 497004908 -1789835131 -1492154191 1644769770



                      ************************************************************************
                      *  ADF 2025.104  RunTime: Nov13-2025 11:43:18  ShM Nodes: 4  Procs: 4  *
                      ************************************************************************
  

       ****************************
       * SINGLE POINT CALCULATION *
       ****************************
 
--------
Geometry
--------
Formula: H2
Atoms
  Index Symbol   x (angstrom)   y (angstrom)   z (angstrom)
      1      H     0.00000000     0.00000000     0.62669500
      2      H     0.00000000     0.00000000     1.37330500
 
Total System Charge             0.00000
Bonding info available!
 
 
----------------
ADF Engine Input
----------------
 
 Basis
 Type TZ2P
 Core None
 End
 XC
 Hybrid PBE0
 DISPERSION Grimme3 BJDAMP
 End
 Relativity
 Level Spin-Orbit
 Formalism X2C
 SpinOrbitMagnetization NonCollinear
 End
 NumericalQuality Good
 

 Title: *** (NO TITLE) ***

 *** adf ***



 ===========================
 A T T A C H E D   F I L E S
 ===========================
  



 ===============================
 M O D E L   P A R A M E T E R S
 ===============================
  
 DENSITY FUNCTIONAL POTENTIAL (scf)
    Hybrid:                            PBE0                                    == Not Default ==

 SPIN  (restricted / unrestr.)
    Molecule:                          Restricted                               
    Fragments:                         Restricted                               

 OTHER ASPECTS
    Relativistic Corrections:          Spin-Orbit (X2C,MAPA)                   == Not Default ==

    Nuclear Charge Density Model:      Point Charge Nuclei                      
    Core Treatment:                    Frozen Orbital(s)                        

    Hyperfine or Zeeman Interaction:   ---                                      

 Settings for Grimme D3 dispersion correction

      damping                        BJ
      s6                          1.000
      s8                          1.218
      a1                          0.414
      a2                          4.859

 Other (technical) parameters

      alpha                      14.000
      version                         4
 
 WARNING: Atom coordinates do not satisfy full symmetry (probably due to orientation).


 Fragment File(s)
 ----------------
 H:
         file : /home/vallet/ANL/ANL-UVI-structures-Emily/H2/X2C-SO/H2.pbe0-d3bj-gp.x2c-so.results/t21.316B2D2C.H
         jobid: 0
         title: Hydrogen (TZ2P)



 ===============
 G E O M E T R Y  ***  Linear Molecule  ***
 ===============
  

 ATOMS
 =====                            X Y Z                    CHARGE
                                (Angstrom)             Nucl     +Core       At.Mass
                       --------------------------    ----------------       -------
    1  H               0.0000    0.0000    0.6267      1.00      1.00        1.0078
    2  H               0.0000    0.0000    1.3733      1.00      1.00        1.0078


 FRAGMENTS
 =========                                     Atoms in this Fragment     Cart. coord.s (Angstrom)
                                               -------------------------------------------------------
    1  H                                                 1  H            0.0000    0.0000    0.6267
    2  H                                                 2  H            0.0000    0.0000    1.3733


 Interatomic Distance Matrix (Angstrom)
 --------------------------------------

   1)     0.000
   2)     0.747   0.000



 =====================================
 S Y M M E T R Y ,   E L E C T R O N S
 =====================================
  
 Symmetry: NOSYM

 Double Group Irreducible Representations (spinor symmetry)
 -----------------------------------------------------------
 A1/2

 Symmetry is NOT used when fitting density


 Configuration of Valence Electrons
 ==================================
 ( determined in the SCF procedure )

 Total:   2

 Net Charge: 0 (Nuclei minus Electrons)

 Aufbau principle for MO occupations will be applied through SCF cycle no.     150
 Thereafter, the program will assign electrons to MOs that are spatially
 similar to the occupied MOs in a "reference" cycle ("KeepOrbitals").
 The reference cycle is always the PREVIOUS cycle: it will evolve with
 the SCF procedure.
 ***************************************************************************************************



                                      ****************************************
                                      *  B U I L D : (Fragments, Functions)  *
                                      ****************************************
  



 =======
 S F O s  ***  (Symmetrized Fragment Orbitals)  ***
 =======
  
 SFOs are linear combinations of (valence) Fragment Orbitals (FOs), such that the SFOs transform as the
 irreducible representations of the (molecular) symmetry group. Each SFO is therefore characterized by
 an irrep of the molecule and by a few (or only one) generating FOs.
 The SFOs constitute a symmetry-adapted basis for the Fock matrix. The MO eigenvector coefficients in
 this basis provide a direct interpretation of the MOs in terms of Frontier Orbital Theory.

 The SFOs are combined with auxiliary Core Functions (CFs) to ensure orthogonalization on the (frozen)
 Core Orbitals (COs). The Core-orthogonalized SFOs (CSFOs) constitute the true Fock basis.

 The FOs, and hence also the (C)SFOs are combinations of the elementary basis functions (BAS). The basis
 functions that participate in the description of the SFOs depend on the irrep. The indices of the
 involved functions are printed below for each irrep.
 (The complete list of primitive basis functions is printed in another section)

 Total nr. of (C)SFOs (summation over all irreps) :    22

 NOTE: a (C)SFO that is defined as a combination of more than one FO is usually NOT normalized.

 NOTE: the (C)SFOs are single group symmetry adapted orbitals.



                                       === A ===
 Nr. of SFOs :   22
 Cartesian basis functions that participate in this irrep (total number =    24) :
      1     2     3     4     5     6     7     8     9    10
     11    12    13    14    15    16    17    18    19    20
     21    22    23    24

    SFO  (index         Fragment          Generating    Expansion in Fragment Orbitals
  indx  incl.CFs)   Occup   Orb.Energy   FragmentType  Coeff.   Orbital     on Fragment
 --------------------------------------------------------------------------------------
     1       1      1.000      -0.242 au  H             1.00      1 S               1
                        (      -6.582 eV)
     2       2       --         0.113 au  H             1.00      2 S               1
                        (       3.073 eV)
     3       3       --         1.599 au  H             1.00      3 S               1
                        (      43.500 eV)
     4       4       --         0.445 au  H             1.00      1 P:x             1
                        (      12.103 eV)
     5       5       --         0.445 au  H             1.00      1 P:y             1
                        (      12.103 eV)
     6       6       --         0.445 au  H             1.00      1 P:z             1
                        (      12.103 eV)
     7       7       --         2.628 au  H             1.00      1 D:z2            1
                        (      71.505 eV)
     8       8       --         2.628 au  H             1.00      1 D:x2-y2         1
                        (      71.505 eV)
     9       9       --         2.628 au  H             1.00      1 D:xy            1
                        (      71.505 eV)
    10      10       --         2.628 au  H             1.00      1 D:xz            1
                        (      71.505 eV)
    11      11       --         2.628 au  H             1.00      1 D:yz            1
                        (      71.505 eV)
    12      12      1.000      -0.242 au  H             1.00      1 S               2
                        (      -6.582 eV)
    13      13       --         0.113 au  H             1.00      2 S               2
                        (       3.073 eV)
    14      14       --         1.599 au  H             1.00      3 S               2
                        (      43.500 eV)
    15      15       --         0.445 au  H             1.00      1 P:x             2
                        (      12.103 eV)
    16      16       --         0.445 au  H             1.00      1 P:y             2
                        (      12.103 eV)
    17      17       --         0.445 au  H             1.00      1 P:z             2
                        (      12.103 eV)
    18      18       --         2.628 au  H             1.00      1 D:z2            2
                        (      71.505 eV)
    19      19       --         2.628 au  H             1.00      1 D:x2-y2         2
                        (      71.505 eV)
    20      20       --         2.628 au  H             1.00      1 D:xy            2
                        (      71.505 eV)
    21      21       --         2.628 au  H             1.00      1 D:xz            2
                        (      71.505 eV)
    22      22       --         2.628 au  H             1.00      1 D:yz            2
                        (      71.505 eV)



 ================================
 (Slater-type)  F U N C T I O N S  ***  (Basis and Fit)  ***
 ================================
  

 Atom Type    1  (H)
 ==============

 Valence Basis Sets:   5
 -----------------------
   1 S    0.690000
   1 S    0.920000
   1 S    1.580000
   2 P    1.250000
   3 D    2.500000

 Charge Fitting Sets (for the computation of the Coulomb Potential):  11
 -----------------------------------------------------------------------
   1 S    3.160000
   1 S    2.090000
   1 S    1.380000
   2 S    1.500000
   2 P    4.000000
   2 P    2.650000
   2 P    1.750000
   3 D    4.000000
   3 D    2.500000
   4 F    3.000000
   5 G    4.000000


 BAS: List of all Elementary Cartesian Basis Functions
 =====================================================

 The numbering in the list below (to the right of the function characteristics) is referred
 to in print-outs of MO eigenvectors and Mulliken populations in the BAS representation
 (as contrasted to the SFO representation).

 Notes:
 1. The functions are characterized by a polynomial prefactor (powers of x,y,z and r) and
    an exponential decay factor alpha.
 2. Since the basis sets are specific for an atom TYPE, the individual functions occur on
    all atoms of that type.
 3. The word 'Core' in the left margin signals that it is a Core Function (CF) : not a
    degree of freedom in the valence set, but only used to ensure orthogonalization of
    the other valence basis functions on the frozen Core Orbitals.


 (power of) X  Y  Z  R     Alpha  on Atom
            ==========     =====     ==========

 H                                    1    2
                                  ---------------------------------------------------------------------------
            0  0  0  0     0.690      1   13
            0  0  0  0     0.920      2   14
            0  0  0  0     1.580      3   15
            1  0  0  0     1.250      4   16
            0  1  0  0     1.250      5   17
            0  0  1  0     1.250      6   18
            2  0  0  0     2.500      7   19
            1  1  0  0     2.500      8   20
            1  0  1  0     2.500      9   21
            0  2  0  0     2.500     10   22
            0  1  1  0     2.500     11   23
            0  0  2  0     2.500     12   24

 Total number of charge fitting functions (nprimf)       100
 Total number of Cartesian basis functions (naos)         24
 Total number of Cartesian core functions  (ncos)          0

 ***************************************************************************************************



                                              ***********************
                                              *  T E C H N I C A L  *
                                              ***********************
  



 =============================================================
 P A R A L L E L I Z A T I O N  and  V E C T O R I Z A T I O N
 =============================================================
  
 Nr of parallel processes:                                4
 Maximum vector length in NumInt loops:                 128



 =====================
 S C F   U P D A T E S
 =====================
  
 Max. nr. of cycles:                               300
 Convergence criterion:                              0.0000010000
   secondary criterion:                              0.0010000000

 Mix parameter (when DIIS does not apply):           0.2000000000
 Mixed ADIIS+SDIIS will be used                  
    Max number of expansion vectors:                10
    Pure ADIIS when Max([F,P]) is above              0.1000000000
    Pure SDIIS when Max([F,P]) is below              0.0010000000
 Automatic ElectronSmearing (in case of problematic SCF convergence) disabled



 =================
 P R E C I S I O N  ***  (General: NumInt, NeglectFunctionTails, ...)  ***
 =================
  

 NumInt:           Target precision:                 6.0000000000
 -------           Initial precision:                6.0000000000
                   Min. precision (optimization):    6.0000000000

 Neglect Functions:          Basis functions:        0.1000000000E-07
 ------------------          Fit functions:          0.1000000000E-07



 ===========================
 L I N E A R   S C A L I N G
 ===========================
  

 Cut-off radii density fit:                        0.1000000000E-09
 Overlap cut-off criterion AO matrix elements:     0.1000000000E-07
 Cut-offs for Coulomb potential and fitted density:0.1000000000E-09
 Cut-off criterion for Coulomb multipole terms:    0.1000000000E-09
 Progressive Convergence parameter:                 0.000000000    
 ***************************************************************************************************



                                            ***************************
                                            *  C O M P U T A T I O N  *
                                            ***************************
  



 ==============================
 Double group spinor symmetries  ***  (Spin-Orbit)  ***
 ==============================
  

 The double group Lowdins are spinors adapted to the irreducible representations
 of the double group. These double group Lowdins are linear combinations of
 products of the single group Lowdins and the spinfunctions. The single group
 Lowdins are  orthonormalized symmetrized fragment orbitals (SFOs).
 The complex coefficients that are used in the linear combinations are also
 known as Clebsch-Gordan coefficients.
 The spin functions (alpha,beta) span irrep e1/2


          A * e 1/2 :      A1/2

  A1/2:1 = A.alpha
  A1/2:1 = A.beta

 The table summarizes which one-electron orbital irreps (single group) couple
 with spin to which spinor irreps (double group).
 The Clebsch-Gordan series for each direct product: orbital irrep times e1/2.
                  A
            -------
  A1/2           X


 dimension (equal to the max. nr. of electrons per spinor) of the double group irreps
 ------------------------------------------------------------------------------------
  A1/2           1

 Number of elements of the density matrix on this node (used, total):        78       300



 ===========================================
 Numerical Integration : Fuzzy Cells (Becke)
 ===========================================
  
 Becke grid quality: GOOD           
  
 Lebedev angular grid order:             min:  11 max:  31
 Nr. of radial points:                   min:  54 max:  54

 Total nr. of points:      23398
 Nr. of blocks:              183
 Block length:               128
 Nr. of dummy points:         26


 Test of Precision of the Numerical Integration Grid
 ===================================================

 Integral of the Total Core Density:                   0.00000000000000



 ========================
 Density Fitting (zlmFit)
 ========================
  
 ZlmFit Fit Quality: GOOD           
  
 Max L-expansion:                        min:   8 max:   8
 Nr. of radial interpolation points:     min:  78 max:  78



 ======================
 RI Hartree-Fock Scheme
 ======================
  
 Fit Set Quality     : GOOD
 Threshold Quality   : GOOD
 Integration Quality : GOOD
 Fit Generation Method : AUTO
 Response Quality    : DEFAULT
 Is Range Separated  :  F
 
 RIHartreeFock Dependency: number of modified vectors: 1



 =====
 S C F  ***  ScaSCF  ***
 =====
  
 Initial density matrix is calculated as sum of fragments

 CYCLE    1
 SCF Error: norm([F,P])=      0.559988457104, max([F,P])=      0.176573489475
 orbitals (Q,E):
 ---------------
 A1/2 :1...12        ( 1.00    -0.5447)  ( 1.00    -0.5447)  ( 0.00    -0.0026)  ( 0.00    -0.0026)
                     ( 0.00     0.0499)  ( 0.00     0.0499)  ( 0.00     0.2718)  ( 0.00     0.2718)
                     ( 0.00     0.2718)  ( 0.00     0.2718)  ( 0.00     0.2739)  ( 0.00     0.2739)

 CYCLE    2
   MIX coefficients:  0.8000  0.2000
 SCF Error: norm([F,P])=      0.052053305040, max([F,P])=      0.012206539953
 orbitals (Q,E):
 ---------------
 A1/2 :1...12        ( 1.00    -0.5205)  ( 1.00    -0.5205)  ( 0.00     0.0104)  ( 0.00     0.0104)
                     ( 0.00     0.0576)  ( 0.00     0.0576)  ( 0.00     0.2903)  ( 0.00     0.2903)
                     ( 0.00     0.2903)  ( 0.00     0.2903)  ( 0.00     0.2907)  ( 0.00     0.2907)

 CYCLE    3
  SDIIS (wt  0.000): -2.0000  3.0000
 A-DIIS (wt  1.000):  0.0000  1.0000
  DIIS coefficients:  0.0000  1.0000
 SCF Error: norm([F,P])=      0.040202354060, max([F,P])=      0.009417636142
 orbitals (Q,E):
 ---------------
 A1/2 :1...12        ( 1.00    -0.4286)  ( 1.00    -0.4286)  ( 0.00     0.0555)  ( 0.00     0.0555)
                     ( 0.00     0.0869)  ( 0.00     0.0869)  ( 0.00     0.3601)  ( 0.00     0.3601)
                     ( 0.00     0.3616)  ( 0.00     0.3616)  ( 0.00     0.3616)  ( 0.00     0.3616)

 CYCLE    4
  SDIIS (wt  0.997): -0.5791  0.8521  0.7269
 A-DIIS (wt  0.003):  0.0000  0.0000  1.0000
  DIIS coefficients: -0.5774  0.8496  0.7278
 SCF Error: norm([F,P])=      0.005680477979, max([F,P])=      0.001294553495
 orbitals (Q,E):
 ---------------
 A1/2 :1...12        ( 1.00    -0.4411)  ( 1.00    -0.4411)  ( 0.00     0.0509)  ( 0.00     0.0509)
                     ( 0.00     0.0836)  ( 0.00     0.0836)  ( 0.00     0.3518)  ( 0.00     0.3518)
                     ( 0.00     0.3533)  ( 0.00     0.3533)  ( 0.00     0.3533)  ( 0.00     0.3533)

 CYCLE    5
  SDIIS (wt  1.000):  0.0479 -0.0727 -0.0731  1.0978
  DIIS coefficients:  0.0479 -0.0727 -0.0731  1.0978
 SCF Error: norm([F,P])=      0.000021902533, max([F,P])=      0.000005633535
 orbitals (Q,E):
 ---------------
 A1/2 :1...12        ( 1.00    -0.4411)  ( 1.00    -0.4411)  ( 0.00     0.0509)  ( 0.00     0.0509)
                     ( 0.00     0.0835)  ( 0.00     0.0835)  ( 0.00     0.3518)  ( 0.00     0.3518)
                     ( 0.00     0.3533)  ( 0.00     0.3533)  ( 0.00     0.3533)  ( 0.00     0.3533)

 CYCLE    6
  SDIIS (wt  1.000): -0.0005  0.0009  0.0014 -0.0187  1.0170
  DIIS coefficients: -0.0005  0.0009  0.0014 -0.0187  1.0170
 SCF Error: norm([F,P])=      0.000000480880, max([F,P])=      0.000000099515
 orbitals (Q,E):
 ---------------
 A1/2 :1...12        ( 1.00    -0.4411)  ( 1.00    -0.4411)  ( 0.00     0.0509)  ( 0.00     0.0509)
                     ( 0.00     0.0835)  ( 0.00     0.0835)  ( 0.00     0.3518)  ( 0.00     0.3518)
                     ( 0.00     0.3533)  ( 0.00     0.3533)  ( 0.00     0.3533)  ( 0.00     0.3533)

 SCF CONVERGED

 CYCLE    7
 ***************************************************************************************************



                                                *******************
                                                *  R E S U L T S  *
                                                *******************
  
  
 Hartree-Fock exchange energy:  -0.655241688283494
 *** Using FIT density in Focky
  SDIIS (wt  1.000):  0.0000  0.0000 -0.0001 -0.0008  1.0009
  DIIS coefficients:  0.0000  0.0000 -0.0001 -0.0008  1.0009
 SCF Error: norm([F,P])=      0.000000003367, max([F,P])=      0.000000000933

 Orbital Energies, per Irrep and Spin:
 ======================================
                        Occup              E (au)              E (eV)       Diff (eV) with prev. cycle
                        -----      --------------------        ------       --------------------------
 A1/2
               1        1.000     -0.44107902363724E+00       -12.002              -1.70E-08
               2        1.000     -0.44107902360015E+00       -12.002              -1.70E-08
               3        0.000      0.50904655077212E-01         1.385
               4        0.000      0.50904655095042E-01         1.385
               5        0.000      0.83543678356206E-01         2.273
               6        0.000      0.83543678376466E-01         2.273
               7        0.000      0.35184958103470E+00         9.574
               8        0.000      0.35184958106842E+00         9.574
               9        0.000      0.35327179041635E+00         9.613
              10        0.000      0.35327179043331E+00         9.613
              11        0.000      0.35328778638959E+00         9.613
              12        0.000      0.35328778639402E+00         9.613
  
 HOMO :        2 A1/2             -0.44107902360015E+00
 LUMO :        3 A1/2              0.50904655077212E-01
  


 All Electron Calculation, thus no Orbital Energies of the Core Orbitals are calculated


 Fit test: (difference of exact and fit density, squared integrated, result summed over spins)
         Sum-of-Fragments:                             0.00000000000004
         Orthogonalized Fragments:                     0.00000001850391
         SCF:                                          0.00000014717912



 ==========================
 Electron Density at Nuclei
 ==========================
  
 The electron density is calculated at points on a small sphere around the center of a nucleus.
 The printed electron density is the average electron density on these points.
 The radius of the sphere is the printed approximate finite nuclear radius.
 Note: density is calculated in the Dirac picture

         Atom        Nuclear Radius (Angstrom)             Electron Density (a.u.)
         ----        -------------------------             -----------------------
     1)   H                 0.0000181514                                0.47288
     2)   H                 0.0000181514                                0.47288



 =======================================
 M U L L I K E N   P O P U L A T I O N S
 =======================================
  
 The survey below gives for each atom:
 a) the total charge (Z minus electrons)
 b) the net spin polarization (nr of electrons spin-A minus spin-B)
 c) for each spin the atomic electron valence density (integrated) per L-value.

 Atom              Charge    Spin density          S         P         D         F
 ----              ------    ------------       ------    ------    ------    ------
 1 H               0.0000                       0.9701    0.0279    0.0020    0.0000
 2 H              -0.0000                       0.9701    0.0279    0.0020    0.0000

 Populations of individual BAS functions
 ----------------------------------------
 1 H           -0.1655  0.8104  0.3252  0.0000  0.0000  0.0279 -0.0043  0.0000 -0.0000 -0.0043
               -0.0000  0.0106
 2 H           -0.1655  0.8104  0.3252  0.0000  0.0000  0.0279 -0.0043  0.0000 -0.0000 -0.0043
               -0.0000  0.0106

 Gross Charges per Atom (Z minus electrons)
 ==========================================
             0.0000   -0.0000
 Net Total:  0.00000000


 Atom-Atom Population Matrix (off-diagonal elements not doubled)
 ===============================================================

     1 :     0.5639
     2 :     0.4361    0.5639



 =================================================
 H I R S H F E L D   C H A R G E   A N A L Y S I S
 =================================================
  
 For each fragment: the (numerical) integral of rho(scf) * rho(fragment)/rho(sum-of-fragments)
 (nuclear charges are included, electrons are counted negative)

 The fragments and their ordering are defined in the early G E O M E T R Y output section.
 If you use single-atom fragments, this usually implies that all atoms of the same
 chemical type are grouped together. This may not be the order in which you listed them
 in the input file!

  Fragment                       Charge
 ------------------------------------------
    1  H                        -0.0000
    2  H                        -0.0000

 Sum of these charges =         -0.00000196
 (accuracy NumInt/Tails)



 =============================
 V O R O N O I   C H A R G E S
 =============================
  
 For each atom: the (numerical) integral of the total electronic charge density in its Voronoi cell,
 i.e. the region of space that is closer to that atom than to any other atom.
 (cf. Wigner-Seitz cells in crystals)

 Within the Voronoi cell the subintegrals over the atomic sphere and the remaining part are evaluated
 separately to give the numbers of electrons (negative charge) in these regions.
 The net total charge in the cell (including the nuclear charge) is also given.

 Values are provided for
    a) the Initial (sum-of-fragments) density
    b) the Orthogonalized-Fragments density
    c) the SCF density
    d) the Voronoi Deformation Density (VDD): the difference SCF-Initial for the complete atomic cell

  Atom                Initial                    OrthFrag                   SCF
             Sphere RestCell NetTotal   Sphere RestCell NetTotal   Sphere RestCell NetTotal      VDD
 -------     ------------------------   ------------------------   ------------------------    -----
    1 H      -0.055   -0.945   -0.000   -0.075   -0.925   -0.000   -0.085   -0.915   -0.000   -0.000
    2 H      -0.055   -0.945   -0.000   -0.075   -0.925   -0.000   -0.085   -0.915   -0.000   -0.000
 ---------------------------------------------------------------------------------------------------
 Total NetCharge:              -0.000                     -0.000                     -0.000   -0.000
 (accuracy NumInt/Tails)

 Remark: the 'NetTotal' Voronoi charges often do not match the Mulliken and/or Hirshfeld charges very
 well. This is caused by the fact that chemically different atoms are not treated in accordance with
 their relative sizes. (Voronoi cells are defined by boundary planes halfway between the atoms.)
 However, the CHANGES in charge, comparing 'Initial' to 'SCF' for instance, do give a fair indication
 of the flow of charge caused by the relaxation from sum-of-fragments to self-consistency.

 Warning: the absolute accuracy of the VDD charges obtained using the Fuzzy Cells (Becke) integration
 scheme is much poorer than the one obtained with an 'equivalent' Voronoi integration grid. 



 =================================================================
 M U L T I P O L E   D E R I V E D   C H A R G E   A N A L Y S I S
 =================================================================

 This charge analysis uses the atomic multipoles (obtained from the fitted density) up to some level X,
 and reconstructs these multipoles exactly (up to level X) by distributing charges over all atoms.
 This is achieved by using Lagrange multipliers and a weight function to keep the multipoles local.

 Dummy atoms can be included (by setting INCDUM in MDC-block to 1) to obtain a fractional charge.
 This is generally useful and necessary only for small symmetrical molecules, when there are not
 enough degrees of freedom to reconstruct the multipoles.

 Since the atomic multipoles are reconstructed up to level X,
 the molecular multipoles are represented also up to level X.
 The recommended level is to reconstruct up to quadrupole : -> MDC-q charges.

 See: M. Swart, P.Th. van Duijnen, J.G. Snijders, J.Comput.Chem., (2001), p. 79-88.

 ------------------------------------------------------------- 
 Atomic electronic multipole moments from SCF equations (a.u.)
 ------------------------------------------------------------- 

   atom        charge        dip-x     dip-y     dip-z      quad-xx   quad-xy   quad-xz   quad-yy   quad-yz   quad-zz
 --------------------------------------------------------------------------------------------------------------------
    1 H      0.000000    -0.000000 -0.000000 -0.015767    -0.121524 -0.000000  0.000000 -0.121524  0.000000  0.243048
    2 H     -0.000000     0.000000 -0.000000  0.015767    -0.121524  0.000000 -0.000000 -0.121524 -0.000000  0.243048

 --------------------------------------- 
 Multipole derived atomic charges (a.u.)
 --------------------------------------- 

 The MDC-m charges are just the Monopole terms in the multipole expansion, while for the MDC-d charges
 also the Dipoles are reconstructed. The usually preferred charges are the MDC-q charges.
 These reconstruct the Monopoles, Dipoles and Quadrupoles (both atomic AND molecular).

        Atom    Level:     MDC-m        MDC-d        MDC-q
 ---------------------------------------------------------
     1     H            0.000000     0.000000     0.000000
     2     H           -0.000000    -0.000000    -0.000000

 ------------------------------------------------ 
 Average absolute deviations in atomic multipoles
 ------------------------------------------------ 

 Stated here are the average differences between the atomic multipoles
 and the reconstructed atomic multipoles (from the distributed charges).
 If these values are not zero, this means there are not enough degrees of freedom,
 to be able to reconstruct the atomic multipoles. (This usually happens only
 for small and/or highly symmetric molecules). If this is the case, one could add
 dummy atoms as extra point charges (and setting INCDUM in MDC-block to 1).

 Level:                                 MDC-d        MDC-q
 ---------------------------------------------------------
 Charge   (a.u.)                       0.0000       0.0000
 Dipole   (Debye)                      0.0000       0.1193
 Quad.    (a.u.)                       0.0884       0.0222

 --------------------------------------- 
 Represented molecular multipole moments
 --------------------------------------- 

 Given here are the Molecular multipole moments from the atomic charges, and from the Fit Density.
 Note that the atomic charges represent the latter, NOT the ones from the Exact density.

            Q (a.u.)             Dipole moment (Debye)                                          Quadrupole moment (a.u.)
                                 x         y         z              xx        xy        xz        yy        yz        zz
------------------------------------------------------------------------------------------------------------------------
MDC-m         0.0000        0.0000    0.0000   -0.0000          0.0000    0.0000    0.0000    0.0000    0.0000   -0.0000
MDC-d         0.0000        0.0000    0.0000   -0.0000          0.0000    0.0000    0.0000    0.0000    0.0000   -0.0000
MDC-q        -0.0000        0.0000    0.0000   -0.0000          0.0000    0.0000    0.0000    0.0000    0.0000   -0.0000
 
Fit.Dens.     0.0000       -0.0000   -0.0000   -0.0000         -0.2653    0.0000    0.0000   -0.2653   -0.0000    0.5306



 =============
 Dipole Moment  ***  (Debye)  ***
 =============
  
 Vector   :        -0.00000000     -0.00000000     -0.00000002
 Magnitude:         0.00000002

 This molecular dipole moment is calculated with analytic integration



 =========================================
 Quadrupole Moment (Buckingham convention)  ***  (a.u.)  ***
 =========================================
  
      quad-xx        quad-xy        quad-xz        quad-yy        quad-yz        quad-zz
     -0.26531174     0.00000000     0.00000000    -0.26531174    -0.00000000     0.53062348

 This molecular quadrupole moment is calculated with analytic integration



 ===========================
 B O N D I N G   E N E R G Y  ***  (decomposition)  ***
 ===========================
  
*** IMPORTANT NOTE ***

The bond energy is computed as an energy difference between molecule and
fragments. In particular when the fragments are single atoms, they are usually
computed as SPHERICALLY SYMMETRIC and SPIN-RESTRICTED. Obviously, this usually
does NOT represent the true atomic groundstate.

To obtain the 'real' bond energy, (atomic) correction terms must be applied
for the true (multiplet) fragment ground state. See ref: E.J.Baerends,
V.Branchadell, M.Sodupe, Chem.Phys.Lett.265 (1997) 481

General theoretical background on the bond energy decomposition scheme used
here (Morokuma-Ziegler) can be found in the review paper:
F.M. Bickelhaupt and E.J. Baerends,
"Kohn-Sham Density Functional Theory: Predicting and Understanding Chemistry"
In: Rev. Comput. Chem.; Lipkowitz, K. B. and Boyd, D. B., Eds.;
Wiley-VCH: New York, 2000, Vol. 15, 1-86.

Symbols used in the Bickelhaupt-Baerends (BB) paper are given below to make
the direct connection to that paper, where detailed explanations can be found
on the meaning of the various terms.
The Spin-Orbit term is calculated as the expectation value of the spin-orbit
 operator summed over all occupied spinors.


                                                   hartree              eV         kcal/mol           kJ/mol
                                      --------------------     -----------       ----------      -----------
  pauli hf:                              0.027350523018916          0.7442            17.16            71.81
  elstat hf:                            -0.039684138189083         -1.0799           -24.90          -104.19

Pauli Repulsion
  Kinetic (Delta T^0):                   0.583232422389045         15.8706           365.98          1531.28
  Delta V^Pauli Coulomb:                -0.124623222420310         -3.3912           -78.20          -327.20
  Delta V^Pauli Hybrid-X:               -0.067944713004499         -1.8489           -42.64          -178.39
  Delta V^Pauli Hybrid-C:               -0.005605673886001         -0.1525            -3.52           -14.72
  Delta V^Pauli HF-Exchange:            -0.012333615170167         -0.3356            -7.74           -32.38
                                      --------------------     -----------       ----------      -----------
  Total Pauli Repulsion:                 0.372725197908068         10.1424           233.89           978.59
 (Total Pauli Repulsion =
  Delta E^Pauli in BB paper)

Steric Interaction
  Pauli Repulsion (Delta E^Pauli):       0.372725197908068         10.1424           233.89           978.59
  Electrostatic Interaction:             0.014927455481229          0.4062             9.37            39.19
 (Electrostatic Interaction =
  Delta V_elstat in the BB paper)
                                      --------------------     -----------       ----------      -----------
  Total Steric Interaction:              0.387652653389297         10.5486           243.26          1017.78
 (Total Steric Interaction =
  Delta E^0 in the BB paper)

Orbital Interactions
  A:                                    -0.603288459377621        -16.4163          -378.57         -1583.93
  (Hybrid part) HF exchange:            -0.080883227728617         -2.2009           -50.75          -212.36
  Spin-Orbit:                           -0.000000000073138         -0.0000            -0.00            -0.00
                                      --------------------     -----------       ----------      -----------
  Total Orbital Interactions:           -0.684171687179375        -18.6173          -429.32         -1796.29

Alternative Decomposition Orb.Int.
  Kinetic:                              -0.300554629884048         -8.1785          -188.60          -789.11
  Coulomb:                              -0.223583833732158         -6.0840          -140.30          -587.02
  XC+HF:                                -0.160033223490032         -4.3547          -100.42          -420.17
  XC only:                              -0.079149995761416         -2.1538           -49.67          -207.81
  HF Orbital:                           -0.080883227728617         -2.2009           -50.75          -212.36
  Spin-Orbit:                           -0.000000000073138         -0.0000            -0.00            -0.00
                                      --------------------     -----------       ----------      -----------
  Total Orbital Interactions:           -0.684171687179375        -18.6173          -429.32         -1796.29

  Residu (E=Steric+OrbInt+Res):          0.000000003956050          0.0000             0.00             0.00
  Dispersion Energy:                    -0.000069034679365         -0.0019            -0.04            -0.18

Total Bonding Energy:                   -0.296588064513394         -8.0706          -186.11          -778.69


Summary of Bonding Energy (energy terms are taken from the energy decomposition above)
======================================================================================

  Electrostatic Energy:                  0.014927455481229          0.4062             9.37            39.19
  Kinetic Energy:                        0.282677792504997          7.6921           177.38           742.17
  Coulomb (Steric+OrbInt) Energy:       -0.348207052196418         -9.4752          -218.50          -914.22
  XC Energy:                            -0.245917225550699         -6.6917          -154.32          -645.66
  Spin-Orbit:                           -0.000000000073138         -0.0000            -0.00            -0.00
  Dispersion Energy:                    -0.000069034679365         -0.0019            -0.04            -0.18
                                      --------------------     -----------       ----------      -----------
  Total Bonding Energy:                 -0.296588064513394         -8.0706          -186.11          -778.69


Correction terms (incorporated in energies above; only for test purposes):

1. Indication of fit-quality: 1st-order fit-correction used in the energy (hartree):   0.0000012039
2. Electrostatic (Fit correction):   0.0000000000



 =======================================================================
 Electrostatic potential at the Nuclei due to electrons and other nuclei
 =======================================================================
  
         Atom                  Potential
         ----                  ---------
     1)   H                   1.10566000
     2)   H                   1.10566000
 Mulliken charges used for AMS results%charges...


    =====================
     CALCULATION RESULTS
    =====================

Energy (hartree)            -0.29658806


--------------
Atomic charges
--------------
  Index   Atom    Charge
      1      H    0.0000
      2      H   -0.0000


Dipole moment vector    (Debye):    -0.00000000   -0.00000000   -0.00000002
              magnitude (Debye):     0.00000002


-----------------------
Molecular orbitals info
-----------------------
n orbitals:               44
n spin:                    1

Note: only printing virtual orbitals with
      energy smaller than HOMO + 100. eV

HOMO (eV):             -12.0024
LUMO (eV):               1.3852
HOMO-LUMO gap (eV):     13.3876

   Index   Energy (eV)    Occupation
      32       87.5811         0.000       
      31       87.5811         0.000       
      30       82.4981         0.000       
      29       82.4981         0.000       
      28       82.4971         0.000       
      27       82.4971         0.000       
      26       61.7502         0.000       
      25       61.7502         0.000       
      24       61.7489         0.000       
      23       61.7489         0.000       
      22       56.6285         0.000       
      21       56.6285         0.000       
      20       39.8626         0.000       
      19       39.8626         0.000       
      18       27.6820         0.000       
      17       27.6820         0.000       
      16       27.6812         0.000       
      15       27.6812         0.000       
      14       23.0906         0.000       
      13       23.0906         0.000       
      12        9.6134         0.000       
      11        9.6134         0.000       
      10        9.6130         0.000       
       9        9.6130         0.000       
       8        9.5743         0.000       
       7        9.5743         0.000       
       6        2.2733         0.000       
       5        2.2733         0.000       
       4        1.3852         0.000       
       3        1.3852         0.000 < LUMO
       2      -12.0024         1.000 < HOMO
       1      -12.0024         1.000       

AMS application finished. Exiting.
NORMAL TERMINATION
     Total cpu time:       3.20
  Total system time:       0.67
 Total elapsed time:       5.80
