 Entering Gaussian System, Link 0=/home/pcmt/gaussian/g16.C.01/g16/g16
 Initial command:
 /home/pcmt/gaussian/g16.C.01/g16/l1.exe "/state/partition2/vallet/1061439.phlam-s-sakura/Gau-33888.inp" -scrdir="/state/partition2/vallet/1061439.phlam-s-sakura/"
 Entering Link 1 = /home/pcmt/gaussian/g16.C.01/g16/l1.exe PID=     33889.
  
 Copyright (c) 1988-2019, Gaussian, Inc.  All Rights Reserved.
  
 This is part of the Gaussian(R) 16 program.  It is based on
 the Gaussian(R) 09 system (copyright 2009, Gaussian, Inc.),
 the Gaussian(R) 03 system (copyright 2003, Gaussian, Inc.),
 the Gaussian(R) 98 system (copyright 1998, Gaussian, Inc.),
 the Gaussian(R) 94 system (copyright 1995, Gaussian, Inc.),
 the Gaussian 92(TM) system (copyright 1992, Gaussian, Inc.),
 the Gaussian 90(TM) system (copyright 1990, Gaussian, Inc.),
 the Gaussian 88(TM) system (copyright 1988, Gaussian, Inc.),
 the Gaussian 86(TM) system (copyright 1986, Carnegie Mellon
 University), and the Gaussian 82(TM) system (copyright 1983,
 Carnegie Mellon University). Gaussian is a federally registered
 trademark of Gaussian, Inc.
  
 This software contains proprietary and confidential information,
 including trade secrets, belonging to Gaussian, Inc.
  
 This software is provided under written license and may be
 used, copied, transmitted, or stored only in accord with that
 written license.
  
 The following legend is applicable only to US Government
 contracts under FAR:
  
                    RESTRICTED RIGHTS LEGEND
  
 Use, reproduction and disclosure by the US Government is
 subject to restrictions as set forth in subparagraphs (a)
 and (c) of the Commercial Computer Software - Restricted
 Rights clause in FAR 52.227-19.
  
 Gaussian, Inc.
 340 Quinnipiac St., Bldg. 40, Wallingford CT 06492
  
  
 ---------------------------------------------------------------
 Warning -- This program may not be used in any manner that
 competes with the business of Gaussian, Inc. or will provide
 assistance to any competitor of Gaussian, Inc.  The licensee
 of this program is prohibited from giving any competitor of
 Gaussian, Inc. access to this program.  By using this program,
 the user acknowledges that Gaussian, Inc. is engaged in the
 business of creating and licensing software in the field of
 computational chemistry and represents and warrants to the
 licensee that it is not a competitor of Gaussian, Inc. and that
 it will not use this program in any manner prohibited above.
 ---------------------------------------------------------------
  

 Cite this work as:
 Gaussian 16, Revision C.01,
 M. J. Frisch, G. W. Trucks, H. B. Schlegel, G. E. Scuseria, 
 M. A. Robb, J. R. Cheeseman, G. Scalmani, V. Barone, 
 G. A. Petersson, H. Nakatsuji, X. Li, M. Caricato, A. V. Marenich, 
 J. Bloino, B. G. Janesko, R. Gomperts, B. Mennucci, H. P. Hratchian, 
 J. V. Ortiz, A. F. Izmaylov, J. L. Sonnenberg, D. Williams-Young, 
 F. Ding, F. Lipparini, F. Egidi, J. Goings, B. Peng, A. Petrone, 
 T. Henderson, D. Ranasinghe, V. G. Zakrzewski, J. Gao, N. Rega, 
 G. Zheng, W. Liang, M. Hada, M. Ehara, K. Toyota, R. Fukuda, 
 J. Hasegawa, M. Ishida, T. Nakajima, Y. Honda, O. Kitao, H. Nakai, 
 T. Vreven, K. Throssell, J. A. Montgomery, Jr., J. E. Peralta, 
 F. Ogliaro, M. J. Bearpark, J. J. Heyd, E. N. Brothers, K. N. Kudin, 
 V. N. Staroverov, T. A. Keith, R. Kobayashi, J. Normand, 
 K. Raghavachari, A. P. Rendell, J. C. Burant, S. S. Iyengar, 
 J. Tomasi, M. Cossi, J. M. Millam, M. Klene, C. Adamo, R. Cammi, 
 J. W. Ochterski, R. L. Martin, K. Morokuma, O. Farkas, 
 J. B. Foresman, and D. J. Fox, Gaussian, Inc., Wallingford CT, 2019.
 
 ******************************************
 Gaussian 16:  ES64L-G16RevC.01  3-Jul-2019
                28-Oct-2025 
 ******************************************
 %mem=8000Mb
 %NProc=4
 Will use up to    4 processors via shared memory.
 %chk=H2O.pbe0-d3bj-cosmo.optg-freq.chk
 ----------------------------------------------------------------------
 #p PBE1PBE/GEN GFInput GFOldPrint 5D 7F IOP(4/69=2, 6/7=3) EmpiricalDi
 spersion=GD3BJ Scf=(NoVarAcc,MaxCycle=200,conver=8) Integral=(Grid=Ult
 raFine) Guess=Harris Symm=Loose Opt Freq=(Raman, InternalModes) SCRF=(
 COSMO, Solvent=Water, Read)
 ----------------------------------------------------------------------
 1/18=20,19=15,26=6,38=1,40=2/1,3;
 2/9=110,12=2,17=4,18=3,40=1/2;
 3/5=7,8=11,11=2,24=11,25=1,30=1,70=22103,71=1,72=1,74=-13,75=-5,124=41/1,2,3;
 4/11=8,69=2/1;
 5/5=2,6=8,7=200,38=1,53=1/2;
 6/7=3,8=2,9=2,10=2,28=1/1;
 7//1,2,3,16;
 1/18=20,19=15,26=6/3(2);
 2/9=110/2;
 99//99;
 2/9=110/2;
 3/5=7,6=1,8=11,11=2,25=1,30=1,70=22105,71=1,72=1,74=-13,75=-5,82=7,124=41/1,2,3;
 4/5=5,11=8,16=3,69=2/1;
 5/5=2,6=8,7=200,38=1,53=1/2;
 7//1,2,3,16;
 1/18=20,19=15,26=6/3(-5);
 2/9=110/2;
 6/7=3,8=2,9=2,10=2,19=2,28=1/1;
 99/9=1/99;
 Leave Link    1 at Tue Oct 28 11:47:08 2025, MaxMem=  1048576000 cpu:               0.6 elap:               0.2
 (Enter /home/pcmt/gaussian/g16.C.01/g16/l101.exe)
 ---------------------------------
 H2O.pbe0-d3bj-cosmo.optg-freq.chk
 ---------------------------------
 Symbolic Z-matrix:
 Charge =  0 Multiplicity = 1
 O                     0.        0.        0. 
 H                     0.        1.        1. 
 H                     0.        1.       -1. 
 
 Add virtual bond connecting atoms H2         and O1         Dist= 2.67D+00.
 Add virtual bond connecting atoms H3         and O1         Dist= 2.67D+00.
 ITRead=  0  0  0
 MicOpt= -1 -1 -1
 NAtoms=      3 NQM=        3 NQMF=       0 NMMI=      0 NMMIF=      0
                NMic=       0 NMicF=      0.
                    Isotopes and Nuclear Properties:
 (Nuclear quadrupole moments (NQMom) in fm**2, nuclear magnetic moments (NMagM)
  in nuclear magnetons)

  Atom         1           2           3
 IAtWgt=          16           1           1
 AtmWgt=  15.9949146   1.0078250   1.0078250
 NucSpn=           0           1           1
 AtZEff=  -0.0000000  -0.0000000  -0.0000000
 NQMom=    0.0000000   0.0000000   0.0000000
 NMagM=    0.0000000   2.7928460   2.7928460
 AtZNuc=   8.0000000   1.0000000   1.0000000
 Leave Link  101 at Tue Oct 28 11:47:09 2025, MaxMem=  1048576000 cpu:               0.9 elap:               0.4
 (Enter /home/pcmt/gaussian/g16.C.01/g16/l103.exe)

 GradGradGradGradGradGradGradGradGradGradGradGradGradGradGradGradGradGrad
 Berny optimization.
 Initialization pass.
                           ----------------------------
                           !    Initial Parameters    !
                           ! (Angstroms and Degrees)  !
 --------------------------                            --------------------------
 ! Name  Definition              Value          Derivative Info.                !
 --------------------------------------------------------------------------------
 ! R1    R(1,2)                  1.4142         estimate D2E/DX2                !
 ! R2    R(1,3)                  1.4142         estimate D2E/DX2                !
 ! A1    A(2,1,3)               90.0            estimate D2E/DX2                !
 --------------------------------------------------------------------------------
 Trust Radius=3.00D-01 FncErr=5.00D-06 GrdErr=5.00D-06 EigMax=2.50D+02 EigMin=1.00D-04
 Number of steps in this run=     20 maximum allowed number of steps=    100.
 GradGradGradGradGradGradGradGradGradGradGradGradGradGradGradGradGradGrad

 Leave Link  103 at Tue Oct 28 11:47:09 2025, MaxMem=  1048576000 cpu:               0.1 elap:               0.1
 (Enter /home/pcmt/gaussian/g16.C.01/g16/l202.exe)
                          Input orientation:                          
 ---------------------------------------------------------------------
 Center     Atomic      Atomic             Coordinates (Angstroms)
 Number     Number       Type             X           Y           Z
 ---------------------------------------------------------------------
      1          8           0        0.000000    0.000000    0.000000
      2          1           0        0.000000    1.000000    1.000000
      3          1           0        0.000000    1.000000   -1.000000
 ---------------------------------------------------------------------
                    Distance matrix (angstroms):
                    1          2          3
     1  O    0.000000
     2  H    1.414214   0.000000
     3  H    1.414214   2.000000   0.000000
 Stoichiometry    H2O
 Framework group  C2V[C2(O),SGV(H2)]
 Deg. of freedom     2
 Full point group                 C2V     NOp   4
 Largest Abelian subgroup         C2V     NOp   4
 Largest concise Abelian subgroup C2      NOp   2
                         Standard orientation:                         
 ---------------------------------------------------------------------
 Center     Atomic      Atomic             Coordinates (Angstroms)
 Number     Number       Type             X           Y           Z
 ---------------------------------------------------------------------
      1          8           0        0.000000    0.000000    0.200000
      2          1           0       -0.000000    1.000000   -0.800000
      3          1           0       -0.000000   -1.000000   -0.800000
 ---------------------------------------------------------------------
 Rotational constants (GHZ):         282.3237827         250.7275522         132.7946228
 Leave Link  202 at Tue Oct 28 11:47:09 2025, MaxMem=  1048576000 cpu:               0.1 elap:               0.1
 (Enter /home/pcmt/gaussian/g16.C.01/g16/l301.exe)
 General basis read from cards:  (5D, 7F)
 Centers:       1
 Def2TZVP
 ****
 Centers:       2      3
 Def2TZVP
 ****
 Ernie: Thresh=  0.10000D-02 Tol=  0.10000D-05 Strict=F.
 AO basis set in the form of general basis input (Overlap normalization):
      1 0
 S   6 1.00       0.000000000000
      0.2703238263D+05  0.5722733521D-03
      0.4052387139D+04  0.4435323349D-02
      0.9223272271D+03  0.2302010771D-01
      0.2612407099D+03  0.9282249067D-01
      0.8535464135D+02  0.2937850001D+00
      0.3103503524D+02  0.6740160450D+00
 S   2 1.00       0.000000000000
      0.1226086073D+02  0.6383993703D+00
      0.4998707601D+01  0.3953458713D+00
 S   1 1.00       0.000000000000
      0.1170310816D+01  0.1000000000D+01
 S   1 1.00       0.000000000000
      0.4647474099D+00  0.1000000000D+01
 S   1 1.00       0.000000000000
      0.1850453636D+00  0.1000000000D+01
 P   4 1.00       0.000000000000
      0.6327495480D+02  0.1201833222D-01
      0.1462704938D+02  0.8300542179D-01
      0.4450122346D+01  0.3199174393D+00
      0.1527579965D+01  0.7071554292D+00
 P   1 1.00       0.000000000000
      0.5293511794D+00  0.1000000000D+01
 P   1 1.00       0.000000000000
      0.1747842127D+00  0.1000000000D+01
 D   1 1.00       0.000000000000
      0.2314000000D+01  0.1000000000D+01
 D   1 1.00       0.000000000000
      0.6450000000D+00  0.1000000000D+01
 F   1 1.00       0.000000000000
      0.1428000000D+01  0.1000000000D+01
 ****
      2 0
 S   3 1.00       0.000000000000
      0.3406134100D+02  0.2543930721D-01
      0.5123574600D+01  0.1900859489D+00
      0.1164662600D+01  0.8524411301D+00
 S   1 1.00       0.000000000000
      0.3272304100D+00  0.1000000000D+01
 S   1 1.00       0.000000000000
      0.1030724100D+00  0.1000000000D+01
 P   1 1.00       0.000000000000
      0.8000000000D+00  0.1000000000D+01
 ****
      3 0
 S   3 1.00       0.000000000000
      0.3406134100D+02  0.2543930721D-01
      0.5123574600D+01  0.1900859489D+00
      0.1164662600D+01  0.8524411301D+00
 S   1 1.00       0.000000000000
      0.3272304100D+00  0.1000000000D+01
 S   1 1.00       0.000000000000
      0.1030724100D+00  0.1000000000D+01
 P   1 1.00       0.000000000000
      0.8000000000D+00  0.1000000000D+01
 ****

 ***********************************************************************************************************************************
 *             ATOMIC CENTER             *        ATOMIC ORBITAL       *                     GAUSSIAN FUNCTIONS                    *
 ***********************************************************************************************************************************
 *                                       * FUNCTION    SHELL    SCALE  *                                                           *
 *    ATOM   X-COORD  Y-COORD  Z-COORD   *  NUMBER     TYPE     FACTOR *  EXPONENT    S-COEF      P-COEF      D-COEF      F-COEF   *
 ***********************************************************************************************************************************
 *     O      0.00000  0.00000  0.37795                                                                                            *
+                                                1   S           1.00                                                               
+                                                                      0.270324D+050.859858D+000.000000D+000.000000D+000.000000D+00 
 *                                                                     0.405239D+040.160553D+010.000000D+000.000000D+000.000000D+00*
 *                                                                     0.922327D+030.274588D+010.000000D+000.000000D+000.000000D+00*
 *                                                                     0.261241D+030.429877D+010.000000D+000.000000D+000.000000D+00*
 *                                                                     0.853546D+020.587977D+010.000000D+000.000000D+000.000000D+00*
 *                                                                     0.310350D+020.631640D+010.000000D+000.000000D+000.000000D+00*
 *                                               2   S           1.00                                                              *
+                                                                      0.122609D+020.298121D+010.000000D+000.000000D+000.000000D+00 
 *                                                                     0.499871D+010.941956D+000.000000D+000.000000D+000.000000D+00*
 *                                               3   S           1.00                                                              *
+                                                                      0.117031D+010.801929D+000.000000D+000.000000D+000.000000D+00 
 *                                               4   S           1.00                                                              *
+                                                                      0.464747D+000.401165D+000.000000D+000.000000D+000.000000D+00 
 *                                               5   S           1.00                                                              *
+                                                                      0.185045D+000.201080D+000.000000D+000.000000D+000.000000D+00 
 *                                           6-  8   P           1.00                                                              *
+                                                                      0.632750D+020.000000D+000.305720D+010.000000D+000.000000D+00 
 *                                                                     0.146270D+020.000000D+000.338448D+010.000000D+000.000000D+00*
 *                                                                     0.445012D+010.000000D+000.294743D+010.000000D+000.000000D+00*
 *                                                                     0.152758D+010.000000D+000.171183D+010.000000D+000.000000D+00*
 *                                           9- 11   P           1.00                                                              *
+                                                                      0.529351D+000.000000D+000.643606D+000.000000D+000.000000D+00 
 *                                          12- 14   P           1.00                                                              *
+                                                                      0.174784D+000.000000D+000.161090D+000.000000D+000.000000D+00 
 *                                          15- 19   D           1.00                                                              *
+                                                                      0.231400D+010.000000D+000.000000D+000.714571D+010.000000D+00 
 *                                          20- 24   D           1.00                                                              *
+                                                                      0.645000D+000.000000D+000.000000D+000.764080D+000.000000D+00 
 *                                          19- 31   F           1.00                                                              *
+                                                                      0.142800D+010.000000D+000.000000D+000.000000D+000.328165D+01 
 *---------------------------------------------------------------------------------------------------------------------------------*
 *     H     -0.00000  1.88973 -1.51178                                                                                            *
+                                               32   S           1.00                                                               
+                                                                      0.340613D+020.255630D+000.000000D+000.000000D+000.000000D+00 
 *                                                                     0.512357D+010.461360D+000.000000D+000.000000D+000.000000D+00*
 *                                                                     0.116466D+010.681121D+000.000000D+000.000000D+000.000000D+00*
 *                                              33   S           1.00                                                              *
+                                                                      0.327230D+000.308355D+000.000000D+000.000000D+000.000000D+00 
 *                                              34   S           1.00                                                              *
+                                                                      0.103072D+000.129648D+000.000000D+000.000000D+000.000000D+00 
 *                                          35- 37   P           1.00                                                              *
+                                                                      0.800000D+000.000000D+000.107846D+010.000000D+000.000000D+00 
 *---------------------------------------------------------------------------------------------------------------------------------*
 *     H     -0.00000 -1.88973 -1.51178                                                                                            *
+                                               38   S           1.00                                                               
+                                                                      0.340613D+020.255630D+000.000000D+000.000000D+000.000000D+00 
 *                                                                     0.512357D+010.461360D+000.000000D+000.000000D+000.000000D+00*
 *                                                                     0.116466D+010.681121D+000.000000D+000.000000D+000.000000D+00*
 *                                              39   S           1.00                                                              *
+                                                                      0.327230D+000.308355D+000.000000D+000.000000D+000.000000D+00 
 *                                              40   S           1.00                                                              *
+                                                                      0.103072D+000.129648D+000.000000D+000.000000D+000.000000D+00 
 *                                          41- 43   P           1.00                                                              *
+                                                                      0.800000D+000.000000D+000.107846D+010.000000D+000.000000D+00 
 ***********************************************************************************************************************************
 There are    22 symmetry adapted cartesian basis functions of A1  symmetry.
 There are     4 symmetry adapted cartesian basis functions of A2  symmetry.
 There are     9 symmetry adapted cartesian basis functions of B1  symmetry.
 There are    13 symmetry adapted cartesian basis functions of B2  symmetry.
 There are    19 symmetry adapted basis functions of A1  symmetry.
 There are     4 symmetry adapted basis functions of A2  symmetry.
 There are     8 symmetry adapted basis functions of B1  symmetry.
 There are    12 symmetry adapted basis functions of B2  symmetry.
    43 basis functions,    67 primitive gaussians,    48 cartesian basis functions
     5 alpha electrons        5 beta electrons
       nuclear repulsion energy         6.2515453141 Hartrees.
 IExCor= 1009 DFT=T Ex+Corr=PBE1PBE ExCW=0 ScaHFX=  0.250000
 ScaDFX=  0.750000  0.750000  1.000000  1.000000 ScalE2=  1.000000  1.000000
 IRadAn=      5 IRanWt=     -1 IRanGd=            0 ICorTp=0 IEmpDi=141
 NAtoms=    3 NActive=    3 NUniq=    2 SFac= 2.25D+00 NAtFMM=   60 NAOKFM=F Big=F
 Integral buffers will be    131072 words long.
 Raffenetti 2 integral format.
 Two-electron integral symmetry is turned on.
 R6Disp:  Grimme-D3(BJ) Dispersion energy=       -0.0005199683 Hartrees.
 Nuclear repulsion after empirical dispersion term =        6.2510253458 Hartrees.
 Using the following non-standard input for PCM:
 Radii=Klamt
 --- end of non-standard input.
 ------------------------------------------------------------------------------
 Polarizable Continuum Model (PCM)
 =================================
 Model                : C-PCM.
 Atomic radii         : Klamt.
 Polarization charges : Total charges.
 Charge compensation  : None.
 Solution method      : On-the-fly selection.
 Cavity type          : Scaled VdW (van der Waals Surface) (Alpha=1.100).
 Cavity algorithm     : GePol (No added spheres)
                        Default sphere list used, NSphG=    3.
                        Lebedev-Laikov grids with approx.  5.0 points / Ang**2.
                        Smoothing algorithm: York/Karplus (Gamma=1.0000).
                        Polarization charges: spherical gaussians, with
                                              point-specific exponents (IZeta= 3).
                        Self-potential: point-specific (ISelfS= 7).
                        Self-field    : sphere-specific E.n sum rule (ISelfD= 2).
 1st derivatives      : Analytical E(r).r(x)/FMM algorithm (CHGder, D1EAlg=3).
                        Cavity 1st derivative terms included.
 Solvent              : Water, Eps=  78.355300 Eps(inf)=   1.777849
 ------------------------------------------------------------------------------
 Spheres list:
 ISph  on   Nord     Re0    Alpha      Xe            Ye            Ze
    1   O      1    1.7200  1.000      0.000000      0.000000      0.200000
    2   H      2    1.3000  1.000     -0.000000      1.000000     -0.800000
    3   H      3    1.3000  1.000     -0.000000     -1.000000     -0.800000
 ------------------------------------------------------------------------------
 GePol: Number of generator spheres                  =       3
 GePol: Total number of spheres                      =       3
 GePol: Number of exposed spheres                    =       3 (100.00%)
 GePol: Number of points                             =     290
 GePol: Average weight of points                     =       0.17
 GePol: Minimum weight of points                     =   0.16D-04
 GePol: Maximum weight of points                     =    0.21253
 GePol: Number of points with low weight             =       5
 GePol: Fraction of low-weight points (<1% of avg)   =       1.72%
 GePol: Cavity surface area                          =     49.562 Ang**2
 GePol: Cavity volume                                =     29.851 Ang**3
 Leave Link  301 at Tue Oct 28 11:47:09 2025, MaxMem=  1048576000 cpu:               0.5 elap:               0.2
 (Enter /home/pcmt/gaussian/g16.C.01/g16/l302.exe)
 NPDir=0 NMtPBC=     1 NCelOv=     1 NCel=       1 NClECP=     1 NCelD=      1
         NCelK=      1 NCelE2=     1 NClLst=     1 CellRange=     0.0.
 One-electron integrals computed using PRISM.
 One-electron integral symmetry used in STVInt
 NBasis=    43 RedAO= T EigKep=  1.93D-02  NBF=    19     4     8    12
 NBsUse=    43 1.00D-06 EigRej= -1.00D+00 NBFU=    19     4     8    12
 Precomputing XC quadrature grid using
 IXCGrd= 4 IRadAn=           5 IRanWt=          -1 IRanGd=           0 AccXCQ= 0.00D+00.
 Generated NRdTot=       0 NPtTot=           0 NUsed=           0 NTot=          32
 NSgBfM=    48    48    48    48    48 MxSgAt=     3 MxSgA2=     3.
 Leave Link  302 at Tue Oct 28 11:47:09 2025, MaxMem=  1048576000 cpu:               0.8 elap:               0.2
 (Enter /home/pcmt/gaussian/g16.C.01/g16/l303.exe)
 DipDrv:  MaxL=1.
 Leave Link  303 at Tue Oct 28 11:47:09 2025, MaxMem=  1048576000 cpu:               0.1 elap:               0.1
 (Enter /home/pcmt/gaussian/g16.C.01/g16/l401.exe)
 ExpMin= 1.03D-01 ExpMax= 2.70D+04 ExpMxC= 9.22D+02 IAcc=3 IRadAn=         5 AccDes= 0.00D+00
 Harris functional with IExCor= 1009 and IRadAn=       5 diagonalized for initial guess.
 HarFok:  IExCor= 1009 AccDes= 0.00D+00 IRadAn=         5 IDoV= 1 UseB2=F ITyADJ=14
 ICtDFT=  3500011 ScaDFX=  1.000000  1.000000  1.000000  1.000000
 FoFCou: FMM=F IPFlag=           0 FMFlag=      100000 FMFlg1=           0
         NFxFlg=           0 DoJE=T BraDBF=F KetDBF=T FulRan=T
         wScrn=  0.000000 ICntrl=       500 IOpCl=  0 I1Cent=   200000004 NGrid=           0
         NMat0=    1 NMatS0=      1 NMatT0=    0 NMatD0=    1 NMtDS0=    0 NMtDT0=    0
 Petite list used in FoFCou.
 Harris En= -76.2697221776352    
 JPrj=0 DoOrth=F DoCkMO=F.
 Initial guess orbital symmetries:
       Occupied  (A1) (A1) (B2) (A1) (B1)
       Virtual   (A1) (B2) (B2) (A1) (A1) (B1) (B2) (A1) (A1) (A2)
                 (B1) (B2) (A1) (B2) (A2) (B1) (A1) (A1) (B2) (A1)
                 (B2) (B1) (A1) (B2) (A1) (B1) (A1) (B2) (B1) (A2)
                 (B2) (A1) (A2) (B1) (A1) (A1) (B2) (A1)
 The electronic state of the initial guess is 1-A1.
 Leave Link  401 at Tue Oct 28 11:47:10 2025, MaxMem=  1048576000 cpu:               1.0 elap:               0.3
 (Enter /home/pcmt/gaussian/g16.C.01/g16/l502.exe)
 Keep R1 ints in memory in symmetry-blocked form, NReq=3942182.
 FoFCou: FMM=F IPFlag=           0 FMFlag=           0 FMFlg1=           0
         NFxFlg=           0 DoJE=F BraDBF=F KetDBF=F FulRan=T
         wScrn=  0.000000 ICntrl=       600 IOpCl=  0 I1Cent=           0 NGrid=           0
         NMat0=    1 NMatS0=    946 NMatT0=    0 NMatD0=    1 NMtDS0=    0 NMtDT0=    0
 Petite list used in FoFCou.
 Closed shell SCF:
 Using DIIS extrapolation, IDIIS=  1040.
 NGot=  1048576000 LenX=  1048448528 LenY=  1048445783
 Requested convergence on RMS density matrix=1.00D-08 within 200 cycles.
 Requested convergence on MAX density matrix=1.00D-06.
 Requested convergence on             energy=1.00D-06.
 No special actions if energy rises.

 Cycle   1  Pass 1  IDiag  1:
 Inv3:  Mode=1 IEnd=      252300.
 Iteration    1 A*A^-1 deviation from unit magnitude is 2.22D-15 for    257.
 Iteration    1 A*A^-1 deviation from orthogonality  is 9.23D-16 for    178     84.
 Iteration    1 A^-1*A deviation from unit magnitude is 2.22D-15 for    280.
 Iteration    1 A^-1*A deviation from orthogonality  is 8.67D-16 for    206     86.
 E= -76.1623657272865    
 DIIS: error= 5.48D-02 at cycle   1 NSaved=   1.
 NSaved= 1 IEnMin= 1 EnMin= -76.1623657272865     IErMin= 1 ErrMin= 5.48D-02
 ErrMax= 5.48D-02  0.00D+00 EMaxC= 1.00D-01 BMatC= 8.51D-02 BMatP= 8.51D-02
 IDIUse=3 WtCom= 4.52D-01 WtEn= 5.48D-01
 Coeff-Com:  0.100D+01
 Coeff-En:   0.100D+01
 Coeff:      0.100D+01
 Gap=     0.127 Goal=   None    Shift=    0.000
 GapD=    0.127 DampG=1.000 DampE=0.500 DampFc=0.5000 IDamp=-1.
 Damping current iteration by 5.00D-01
 RMSDP=1.03D-02 MaxDP=1.40D-01              OVMax= 3.02D-01

 Cycle   2  Pass 1  IDiag  1:
 E= -76.1478286142428     Delta-E=        0.014537113044 Rises=F Damp=T
 DIIS: error= 3.60D-02 at cycle   2 NSaved=   2.
 NSaved= 2 IEnMin= 1 EnMin= -76.1623657272865     IErMin= 2 ErrMin= 3.60D-02
 ErrMax= 3.60D-02  0.00D+00 EMaxC= 1.00D-01 BMatC= 3.58D-02 BMatP= 8.51D-02
 IDIUse=3 WtCom= 6.40D-01 WtEn= 3.60D-01
 Coeff-Com:  0.387D+00 0.613D+00
 Coeff-En:   0.558D+00 0.442D+00
 Coeff:      0.449D+00 0.551D+00
 Gap=     0.232 Goal=   None    Shift=    0.000
 RMSDP=1.85D-03 MaxDP=2.85D-02 DE= 1.45D-02 OVMax= 1.91D-01

 Cycle   3  Pass 1  IDiag  1:
 E= -76.2276379744542     Delta-E=       -0.079809360211 Rises=F Damp=F
 DIIS: error= 1.20D-02 at cycle   3 NSaved=   3.
 NSaved= 3 IEnMin= 3 EnMin= -76.2276379744542     IErMin= 3 ErrMin= 1.20D-02
 ErrMax= 1.20D-02  0.00D+00 EMaxC= 1.00D-01 BMatC= 3.71D-03 BMatP= 3.58D-02
 IDIUse=3 WtCom= 8.80D-01 WtEn= 1.20D-01
 Coeff-Com:  0.120D+00-0.159D+00 0.104D+01
 Coeff-En:   0.692D-02 0.000D+00 0.993D+00
 Coeff:      0.106D+00-0.140D+00 0.103D+01
 Gap=     0.259 Goal=   None    Shift=    0.000
 RMSDP=7.33D-04 MaxDP=8.64D-03 DE=-7.98D-02 OVMax= 2.07D-02

 Cycle   4  Pass 1  IDiag  1:
 E= -76.2303313005395     Delta-E=       -0.002693326085 Rises=F Damp=F
 DIIS: error= 1.71D-03 at cycle   4 NSaved=   4.
 NSaved= 4 IEnMin= 4 EnMin= -76.2303313005395     IErMin= 4 ErrMin= 1.71D-03
 ErrMax= 1.71D-03  0.00D+00 EMaxC= 1.00D-01 BMatC= 8.41D-05 BMatP= 3.71D-03
 IDIUse=3 WtCom= 9.83D-01 WtEn= 1.71D-02
 Coeff-Com:  0.113D-01-0.232D-01 0.237D+00 0.775D+00
 Coeff-En:   0.000D+00 0.000D+00 0.000D+00 0.100D+01
 Coeff:      0.111D-01-0.228D-01 0.233D+00 0.779D+00
 Gap=     0.257 Goal=   None    Shift=    0.000
 RMSDP=9.93D-05 MaxDP=1.21D-03 DE=-2.69D-03 OVMax= 3.19D-03

 Cycle   5  Pass 1  IDiag  1:
 E= -76.2303906038001     Delta-E=       -0.000059303261 Rises=F Damp=F
 DIIS: error= 2.12D-04 at cycle   5 NSaved=   5.
 NSaved= 5 IEnMin= 5 EnMin= -76.2303906038001     IErMin= 5 ErrMin= 2.12D-04
 ErrMax= 2.12D-04  0.00D+00 EMaxC= 1.00D-01 BMatC= 1.16D-06 BMatP= 8.41D-05
 IDIUse=3 WtCom= 9.98D-01 WtEn= 2.12D-03
 Coeff-Com:  0.193D-02-0.341D-02-0.122D-02-0.170D-01 0.102D+01
 Coeff-En:   0.000D+00 0.000D+00 0.000D+00 0.000D+00 0.100D+01
 Coeff:      0.193D-02-0.340D-02-0.122D-02-0.169D-01 0.102D+01
 Gap=     0.258 Goal=   None    Shift=    0.000
 RMSDP=1.18D-05 MaxDP=1.69D-04 DE=-5.93D-05 OVMax= 3.04D-04

 Cycle   6  Pass 1  IDiag  1:
 E= -76.2303915228214     Delta-E=       -0.000000919021 Rises=F Damp=F
 DIIS: error= 1.22D-05 at cycle   6 NSaved=   6.
 NSaved= 6 IEnMin= 6 EnMin= -76.2303915228214     IErMin= 6 ErrMin= 1.22D-05
 ErrMax= 1.22D-05  0.00D+00 EMaxC= 1.00D-01 BMatC= 3.80D-09 BMatP= 1.16D-06
 IDIUse=1 WtCom= 1.00D+00 WtEn= 0.00D+00
 Coeff-Com: -0.223D-05 0.412D-04 0.118D-02 0.537D-03-0.133D+00 0.113D+01
 Coeff:     -0.223D-05 0.412D-04 0.118D-02 0.537D-03-0.133D+00 0.113D+01
 Gap=     0.258 Goal=   None    Shift=    0.000
 RMSDP=8.61D-07 MaxDP=1.37D-05 DE=-9.19D-07 OVMax= 1.62D-05

 Cycle   7  Pass 1  IDiag  1:
 E= -76.2303915260324     Delta-E=       -0.000000003211 Rises=F Damp=F
 DIIS: error= 7.96D-07 at cycle   7 NSaved=   7.
 NSaved= 7 IEnMin= 7 EnMin= -76.2303915260324     IErMin= 7 ErrMin= 7.96D-07
 ErrMax= 7.96D-07  0.00D+00 EMaxC= 1.00D-01 BMatC= 1.63D-11 BMatP= 3.80D-09
 IDIUse=1 WtCom= 1.00D+00 WtEn= 0.00D+00
 Coeff-Com: -0.171D-04 0.293D-04-0.128D-03 0.132D-03 0.127D-02-0.116D+00
 Coeff-Com:  0.112D+01
 Coeff:     -0.171D-04 0.293D-04-0.128D-03 0.132D-03 0.127D-02-0.116D+00
 Coeff:      0.112D+01
 Gap=     0.258 Goal=   None    Shift=    0.000
 RMSDP=7.89D-08 MaxDP=1.08D-06 DE=-3.21D-09 OVMax= 1.31D-06

 Cycle   8  Pass 1  IDiag  1:
 E= -76.2303915260464     Delta-E=       -0.000000000014 Rises=F Damp=F
 DIIS: error= 9.12D-08 at cycle   8 NSaved=   8.
 NSaved= 8 IEnMin= 8 EnMin= -76.2303915260464     IErMin= 8 ErrMin= 9.12D-08
 ErrMax= 9.12D-08  0.00D+00 EMaxC= 1.00D-01 BMatC= 2.32D-13 BMatP= 1.63D-11
 IDIUse=1 WtCom= 1.00D+00 WtEn= 0.00D+00
 Coeff-Com:  0.166D-05-0.372D-05 0.548D-05-0.338D-04 0.833D-03 0.700D-02
 Coeff-Com: -0.746D-01 0.107D+01
 Coeff:      0.166D-05-0.372D-05 0.548D-05-0.338D-04 0.833D-03 0.700D-02
 Coeff:     -0.746D-01 0.107D+01
 Gap=     0.258 Goal=   None    Shift=    0.000
 RMSDP=7.57D-09 MaxDP=8.78D-08 DE=-1.41D-11 OVMax= 2.76D-07

 Error on total polarization charges =  0.01711
 SCF Done:  E(RPBE1PBE) =  -76.2303915260     A.U. after    8 cycles
            NFock=  8  Conv=0.76D-08     -V/T= 2.0122
 KE= 7.531333809903D+01 PE=-1.929983624128D+02 EE= 3.520360744193D+01
 Leave Link  502 at Tue Oct 28 11:47:12 2025, MaxMem=  1048576000 cpu:               7.2 elap:               2.0
 (Enter /home/pcmt/gaussian/g16.C.01/g16/l601.exe)
 Copying SCF densities to generalized density rwf, IOpCl= 0 IROHF=0.

 **********************************************************************

            Population analysis using the SCF Density.

 **********************************************************************

 Orbital symmetries:
       Occupied  (A1) (A1) (B2) (A1) (B1)
       Virtual   (A1) (B2) (B2) (A1) (A1) (B1) (B2) (A1) (A1) (A2)
                 (B1) (B2) (A1) (B2) (A2) (B1) (A1) (A1) (B2) (A1)
                 (B2) (B1) (A1) (B2) (A1) (B1) (A1) (B2) (A2) (B1)
                 (B2) (A1) (A2) (B1) (A1) (A1) (B2) (A1)
 The electronic state is 1-A1.
 Alpha  occ. eigenvalues --  -19.24598  -0.92632  -0.39770  -0.38432  -0.31124
 Alpha virt. eigenvalues --   -0.05366  -0.01124   0.29227   0.30463   0.42079
 Alpha virt. eigenvalues --    0.43129   0.52000   0.60579   1.14292   1.22796
 Alpha virt. eigenvalues --    1.26741   1.39510   1.45485   1.53356   1.75097
 Alpha virt. eigenvalues --    1.81141   1.87959   2.05429   2.23982   2.39408
 Alpha virt. eigenvalues --    2.39737   2.55907   2.65948   3.08447   3.19948
 Alpha virt. eigenvalues --    5.14731   5.17030   5.17207   5.19141   5.19276
 Alpha virt. eigenvalues --    5.32904   5.40097   6.26589   6.26934   6.29638
 Alpha virt. eigenvalues --    6.49753   6.72837  43.05958
     Molecular Orbital Coefficients:
                           1         2         3         4         5
                        (A1)--O   (A1)--O   (B2)--O   (A1)--O   (B1)--O
     Eigenvalues --   -19.24598  -0.92632  -0.39770  -0.38432  -0.31124
   1 1   O  1S          0.43543  -0.10411   0.00000  -0.02516   0.00000
   2        2S          0.64015  -0.24629   0.00000  -0.06100   0.00000
   3        3S          0.03063   0.36474   0.00000   0.10405   0.00000
   4        4S         -0.01596   0.48647   0.00000   0.11725   0.00000
   5        5S          0.00613   0.23405   0.00000   0.12966   0.00000
   6        6PX         0.00000   0.00000   0.00000   0.00000   0.47984
   7        6PY         0.00000   0.00000   0.37198   0.00000   0.00000
   8        6PZ        -0.00123  -0.03092   0.00000   0.37436   0.00000
   9        7PX         0.00000   0.00000   0.00000   0.00000   0.38445
  10        7PY         0.00000   0.00000   0.31675   0.00000   0.00000
  11        7PZ         0.00126  -0.03600   0.00000   0.31116   0.00000
  12        8PX         0.00000   0.00000   0.00000   0.00000   0.35235
  13        8PY         0.00000   0.00000   0.21664   0.00000   0.00000
  14        8PZ        -0.00082  -0.00887   0.00000   0.23839   0.00000
  15        9D 0        0.00005   0.00084   0.00000  -0.00206   0.00000
  16        9D+1        0.00000   0.00000   0.00000   0.00000  -0.00181
  17        9D-1        0.00000   0.00000  -0.00442   0.00000   0.00000
  18        9D+2       -0.00009  -0.00139   0.00000   0.00100   0.00000
  19        9D-2        0.00000   0.00000   0.00000   0.00000   0.00000
  20       10D 0       -0.00013   0.00482   0.00000  -0.01622   0.00000
  21       10D+1        0.00000   0.00000   0.00000   0.00000  -0.01458
  22       10D-1        0.00000   0.00000  -0.02320   0.00000   0.00000
  23       10D+2        0.00022  -0.00670   0.00000   0.00397   0.00000
  24       10D-2        0.00000   0.00000   0.00000   0.00000   0.00000
  25       11F 0       -0.00002   0.00014   0.00000   0.00146   0.00000
  26       11F+1        0.00000   0.00000   0.00000   0.00000   0.00237
  27       11F-1        0.00000   0.00000   0.00192   0.00000   0.00000
  28       11F+2       -0.00008   0.00135   0.00000  -0.00283   0.00000
  29       11F-2        0.00000   0.00000   0.00000   0.00000   0.00000
  30       11F+3        0.00000   0.00000   0.00000   0.00000  -0.00303
  31       11F-3        0.00000   0.00000  -0.00285   0.00000   0.00000
  32 2   H  1S         -0.00006   0.03704   0.10796  -0.09808   0.00000
  33        2S          0.00038   0.04401   0.17868  -0.16480   0.00000
  34        3S         -0.00083   0.00353   0.09684  -0.08263   0.00000
  35        4PX         0.00000   0.00000   0.00000   0.00000   0.01322
  36        4PY        -0.00036  -0.00815  -0.00437   0.01380   0.00000
  37        4PZ         0.00035   0.00739   0.01452  -0.00075   0.00000
  38 3   H  1S         -0.00006   0.03704  -0.10796  -0.09808   0.00000
  39        2S          0.00038   0.04401  -0.17868  -0.16480   0.00000
  40        3S         -0.00083   0.00353  -0.09684  -0.08263   0.00000
  41        4PX         0.00000   0.00000   0.00000   0.00000   0.01322
  42        4PY         0.00036   0.00815  -0.00437  -0.01380   0.00000
  43        4PZ         0.00035   0.00739  -0.01452  -0.00075   0.00000
                           6         7         8         9        10
                        (A1)--V   (B2)--V   (B2)--V   (A1)--V   (A1)--V
     Eigenvalues --    -0.05366  -0.01124   0.29227   0.30463   0.42079
   1 1   O  1S          0.02894   0.00000   0.00000  -0.00993   0.03958
   2        2S          0.07054   0.00000   0.00000  -0.02179   0.08326
   3        3S         -0.12581   0.00000   0.00000   0.00282   0.04478
   4        4S         -0.12974   0.00000   0.00000   0.24007  -1.21451
   5        5S         -0.41714   0.00000   0.00000  -0.62043   1.38362
   6        6PX         0.00000   0.00000   0.00000   0.00000   0.00000
   7        6PY         0.00000  -0.32612   0.04813   0.00000   0.00000
   8        6PZ         0.29021   0.00000   0.00000  -0.17810  -0.21726
   9        7PX         0.00000   0.00000   0.00000   0.00000   0.00000
  10        7PY         0.00000  -0.25653   0.02106   0.00000   0.00000
  11        7PZ         0.22899   0.00000   0.00000  -0.25333  -0.52407
  12        8PX         0.00000   0.00000   0.00000   0.00000   0.00000
  13        8PY         0.00000  -0.42586   0.07126   0.00000   0.00000
  14        8PZ         0.36719   0.00000   0.00000   0.19867   0.95229
  15        9D 0       -0.00049   0.00000   0.00000  -0.00089   0.00345
  16        9D+1        0.00000   0.00000   0.00000   0.00000   0.00000
  17        9D-1        0.00000  -0.00334   0.01041   0.00000   0.00000
  18        9D+2       -0.00155   0.00000   0.00000   0.00338  -0.00112
  19        9D-2        0.00000   0.00000   0.00000   0.00000   0.00000
  20       10D 0       -0.00568   0.00000   0.00000  -0.00660  -0.00739
  21       10D+1        0.00000   0.00000   0.00000   0.00000   0.00000
  22       10D-1        0.00000  -0.01157   0.01644   0.00000   0.00000
  23       10D+2       -0.00472   0.00000   0.00000   0.02247  -0.00340
  24       10D-2        0.00000   0.00000   0.00000   0.00000   0.00000
  25       11F 0        0.00123   0.00000   0.00000  -0.00059  -0.00053
  26       11F+1        0.00000   0.00000   0.00000   0.00000   0.00000
  27       11F-1        0.00000   0.00186   0.00028   0.00000   0.00000
  28       11F+2       -0.00001   0.00000   0.00000  -0.00027  -0.00031
  29       11F-2        0.00000   0.00000   0.00000   0.00000   0.00000
  30       11F+3        0.00000   0.00000   0.00000   0.00000   0.00000
  31       11F-3        0.00000   0.00101  -0.00093   0.00000   0.00000
  32 2   H  1S          0.11019   0.13205  -0.09432  -0.11147   0.00541
  33        2S          0.20878   0.26930  -0.94642  -0.90047   0.21933
  34        3S          0.53236   0.66173   1.39235   1.03803  -0.24083
  35        4PX         0.00000   0.00000   0.00000   0.00000   0.00000
  36        4PY         0.01161   0.01062   0.01393  -0.01439  -0.00614
  37        4PZ        -0.00919  -0.01357  -0.00071   0.00680   0.02904
  38 3   H  1S          0.11019  -0.13205   0.09432  -0.11147   0.00541
  39        2S          0.20878  -0.26930   0.94642  -0.90047   0.21933
  40        3S          0.53236  -0.66173  -1.39235   1.03803  -0.24083
  41        4PX         0.00000   0.00000   0.00000   0.00000   0.00000
  42        4PY        -0.01161   0.01062   0.01393   0.01439   0.00614
  43        4PZ        -0.00919   0.01357   0.00071   0.00680   0.02904
                          11        12        13        14        15
                        (B1)--V   (B2)--V   (A1)--V   (A1)--V   (A2)--V
     Eigenvalues --     0.43129   0.52000   0.60579   1.14292   1.22796
   1 1   O  1S          0.00000   0.00000   0.03972  -0.00159   0.00000
   2        2S          0.00000   0.00000   0.07934  -0.00335   0.00000
   3        3S          0.00000   0.00000   0.14951  -0.00726   0.00000
   4        4S          0.00000   0.00000  -1.99225   0.12326   0.00000
   5        5S          0.00000   0.00000   2.93995  -0.21888   0.00000
   6        6PX        -0.31690   0.00000   0.00000   0.00000   0.00000
   7        6PY         0.00000  -0.29503   0.00000   0.00000   0.00000
   8        6PZ         0.00000   0.00000   0.15090   0.02028   0.00000
   9        7PX        -0.70608   0.00000   0.00000   0.00000   0.00000
  10        7PY         0.00000  -0.73486   0.00000   0.00000   0.00000
  11        7PZ         0.00000   0.00000   0.45706  -0.10415   0.00000
  12        8PX         1.21918   0.00000   0.00000   0.00000   0.00000
  13        8PY         0.00000   1.75232   0.00000   0.00000   0.00000
  14        8PZ         0.00000   0.00000  -1.52747   0.34925   0.00000
  15        9D 0        0.00000   0.00000  -0.00758  -0.01118   0.00000
  16        9D+1        0.00326   0.00000   0.00000   0.00000   0.00000
  17        9D-1        0.00000   0.01187   0.00000   0.00000   0.00000
  18        9D+2        0.00000   0.00000   0.00848  -0.00598   0.00000
  19        9D-2        0.00000   0.00000   0.00000   0.00000  -0.01188
  20       10D 0        0.00000   0.00000   0.00228   0.54971   0.00000
  21       10D+1       -0.00852   0.00000   0.00000   0.00000   0.00000
  22       10D-1        0.00000  -0.00887   0.00000   0.00000   0.00000
  23       10D+2        0.00000   0.00000   0.03522   0.24437   0.00000
  24       10D-2        0.00000   0.00000   0.00000   0.00000   0.59507
  25       11F 0        0.00000   0.00000   0.00067  -0.01771   0.00000
  26       11F+1       -0.00062   0.00000   0.00000   0.00000   0.00000
  27       11F-1        0.00000   0.00194   0.00000   0.00000   0.00000
  28       11F+2        0.00000   0.00000   0.00224  -0.00685   0.00000
  29       11F-2        0.00000   0.00000   0.00000   0.00000  -0.02197
  30       11F+3        0.00091   0.00000   0.00000   0.00000   0.00000
  31       11F-3        0.00000  -0.00048   0.00000   0.00000   0.00000
  32 2   H  1S          0.00000   0.03767   0.00599  -0.01145   0.00000
  33        2S          0.00000  -0.12654  -0.74590   0.15060   0.00000
  34        3S          0.00000  -0.77200  -0.38271  -0.00718   0.00000
  35        4PX         0.02645   0.00000   0.00000   0.00000   0.49912
  36        4PY         0.00000   0.04341   0.01783  -0.33849   0.00000
  37        4PZ         0.00000  -0.02089  -0.05814  -0.32973   0.00000
  38 3   H  1S          0.00000  -0.03767   0.00599  -0.01145   0.00000
  39        2S          0.00000   0.12654  -0.74590   0.15060   0.00000
  40        3S          0.00000   0.77200  -0.38271  -0.00718   0.00000
  41        4PX         0.02645   0.00000   0.00000   0.00000  -0.49912
  42        4PY         0.00000   0.04341  -0.01783   0.33849   0.00000
  43        4PZ         0.00000   0.02089  -0.05814  -0.32973   0.00000
                          16        17        18        19        20
                        (B1)--V   (B2)--V   (A1)--V   (B2)--V   (A2)--V
     Eigenvalues --     1.26741   1.39510   1.45485   1.53356   1.75097
   1 1   O  1S          0.00000   0.00000  -0.01719   0.00000   0.00000
   2        2S          0.00000   0.00000  -0.04811   0.00000   0.00000
   3        3S          0.00000   0.00000   0.19810   0.00000   0.00000
   4        4S          0.00000   0.00000  -0.22288   0.00000   0.00000
   5        5S          0.00000   0.00000   0.33335   0.00000   0.00000
   6        6PX         0.03234   0.00000   0.00000   0.00000   0.00000
   7        6PY         0.00000   0.14790   0.00000   0.02464   0.00000
   8        6PZ         0.00000   0.00000  -0.15689   0.00000   0.00000
   9        7PX        -0.11033   0.00000   0.00000   0.00000   0.00000
  10        7PY         0.00000  -0.01543   0.00000   0.10408   0.00000
  11        7PZ         0.00000   0.00000  -0.00101   0.00000   0.00000
  12        8PX         0.27939   0.00000   0.00000   0.00000   0.00000
  13        8PY         0.00000   0.11243   0.00000  -0.31787   0.00000
  14        8PZ         0.00000   0.00000  -0.00681   0.00000   0.00000
  15        9D 0        0.00000   0.00000  -0.00247   0.00000   0.00000
  16        9D+1       -0.01264   0.00000   0.00000   0.00000   0.00000
  17        9D-1        0.00000   0.01693   0.00000   0.00651   0.00000
  18        9D+2        0.00000   0.00000   0.00430   0.00000   0.00000
  19        9D-2        0.00000   0.00000   0.00000   0.00000   0.00430
  20       10D 0        0.00000   0.00000  -0.29443   0.00000   0.00000
  21       10D+1        0.66380   0.00000   0.00000   0.00000   0.00000
  22       10D-1        0.00000   0.59251   0.00000   0.05873   0.00000
  23       10D+2        0.00000   0.00000   0.65791   0.00000   0.00000
  24       10D-2        0.00000   0.00000   0.00000   0.00000   0.82702
  25       11F 0        0.00000   0.00000   0.00224   0.00000   0.00000
  26       11F+1       -0.01296   0.00000   0.00000   0.00000   0.00000
  27       11F-1        0.00000   0.00181   0.00000  -0.02742   0.00000
  28       11F+2        0.00000   0.00000  -0.00200   0.00000   0.00000
  29       11F-2        0.00000   0.00000   0.00000   0.00000   0.02358
  30       11F+3        0.01116   0.00000   0.00000   0.00000   0.00000
  31       11F-3        0.00000   0.00162   0.00000  -0.01484   0.00000
  32 2   H  1S          0.00000  -0.10585  -0.07509  -0.06167   0.00000
  33        2S          0.00000   0.41364   0.29787   0.22978   0.00000
  34        3S          0.00000  -0.42059  -0.26140  -0.14335   0.00000
  35        4PX        -0.46580   0.00000   0.00000   0.00000  -0.51533
  36        4PY         0.00000   0.20100   0.28066   0.59495   0.00000
  37        4PZ         0.00000  -0.40219  -0.28104   0.40968   0.00000
  38 3   H  1S          0.00000   0.10585  -0.07509   0.06167   0.00000
  39        2S          0.00000  -0.41364   0.29787  -0.22978   0.00000
  40        3S          0.00000   0.42059  -0.26140   0.14335   0.00000
  41        4PX        -0.46580   0.00000   0.00000   0.00000   0.51533
  42        4PY         0.00000   0.20100  -0.28066   0.59495   0.00000
  43        4PZ         0.00000   0.40219  -0.28104  -0.40968   0.00000
                          21        22        23        24        25
                        (B1)--V   (A1)--V   (A1)--V   (B2)--V   (A1)--V
     Eigenvalues --     1.81141   1.87959   2.05429   2.23982   2.39408
   1 1   O  1S          0.00000   0.00851  -0.00886   0.00000   0.02705
   2        2S          0.00000   0.02724  -0.03452   0.00000   0.08242
   3        3S          0.00000  -0.16120   0.30474   0.00000  -0.45688
   4        4S          0.00000   0.32710  -0.96578   0.00000   0.87812
   5        5S          0.00000  -0.42257   1.36761   0.00000  -1.26738
   6        6PX        -0.01939   0.00000   0.00000   0.00000   0.00000
   7        6PY         0.00000   0.00000   0.00000   0.52400   0.00000
   8        6PZ         0.00000   0.13095  -0.38417   0.00000   0.47733
   9        7PX         0.11533   0.00000   0.00000   0.00000   0.00000
  10        7PY         0.00000   0.00000   0.00000  -0.73309   0.00000
  11        7PZ         0.00000  -0.05897   0.54640   0.00000  -0.49191
  12        8PX        -0.30128   0.00000   0.00000   0.00000   0.00000
  13        8PY         0.00000   0.00000   0.00000   0.89881   0.00000
  14        8PZ         0.00000  -0.00769  -0.82171   0.00000   0.96436
  15        9D 0        0.00000   0.01287   0.01215   0.00000  -0.00160
  16        9D+1        0.00748   0.00000   0.00000   0.00000   0.00000
  17        9D-1        0.00000   0.00000   0.00000  -0.01766   0.00000
  18        9D+2        0.00000   0.00229  -0.00045   0.00000  -0.01172
  19        9D-2        0.00000   0.00000   0.00000   0.00000   0.00000
  20       10D 0        0.00000   0.56995   0.54194   0.00000  -0.27806
  21       10D+1        0.77378   0.00000   0.00000   0.00000   0.00000
  22       10D-1        0.00000   0.00000   0.00000  -0.82188   0.00000
  23       10D+2        0.00000   0.59351  -0.39893   0.00000   0.33575
  24       10D-2        0.00000   0.00000   0.00000   0.00000   0.00000
  25       11F 0        0.00000   0.02330  -0.00226   0.00000  -0.00766
  26       11F+1        0.01036   0.00000   0.00000   0.00000   0.00000
  27       11F-1        0.00000   0.00000   0.00000  -0.03417   0.00000
  28       11F+2        0.00000   0.01594  -0.03637   0.00000  -0.01307
  29       11F-2        0.00000   0.00000   0.00000   0.00000   0.00000
  30       11F+3       -0.02043   0.00000   0.00000   0.00000   0.00000
  31       11F-3        0.00000   0.00000   0.00000   0.02268   0.00000
  32 2   H  1S          0.00000   0.12466  -0.56396  -0.51212  -0.92653
  33        2S          0.00000  -0.12192   0.27905   0.30418   1.60340
  34        3S          0.00000   0.16517  -0.45497  -0.56963  -0.27557
  35        4PX         0.57849   0.00000   0.00000   0.00000   0.00000
  36        4PY         0.00000   0.20792   0.47333   0.26976  -0.30806
  37        4PZ         0.00000   0.52033  -0.14487  -0.38030   0.19148
  38 3   H  1S          0.00000   0.12466  -0.56396   0.51212  -0.92653
  39        2S          0.00000  -0.12192   0.27905  -0.30418   1.60340
  40        3S          0.00000   0.16517  -0.45497   0.56963  -0.27557
  41        4PX         0.57849   0.00000   0.00000   0.00000   0.00000
  42        4PY         0.00000  -0.20792  -0.47333   0.26976   0.30806
  43        4PZ         0.00000   0.52033  -0.14487   0.38030   0.19148
                          26        27        28        29        30
                        (B2)--V   (B1)--V   (A1)--V   (B2)--V   (A1)--V
     Eigenvalues --     2.39737   2.55907   2.65948   3.08447   3.19948
   1 1   O  1S          0.00000   0.00000   0.10198   0.00000   0.08044
   2        2S          0.00000   0.00000   0.34772   0.00000   0.28009
   3        3S          0.00000   0.00000  -2.23951   0.00000  -1.98164
   4        4S          0.00000   0.00000   3.19302   0.00000   2.58130
   5        5S          0.00000   0.00000  -1.86442   0.00000  -0.60106
   6        6PX         0.00000  -1.20277   0.00000   0.00000   0.00000
   7        6PY        -0.54477   0.00000   0.00000  -0.96799   0.00000
   8        6PZ         0.00000   0.00000  -0.73367   0.00000   0.75216
   9        7PX         0.00000   1.60562   0.00000   0.00000   0.00000
  10        7PY         0.50788   0.00000   0.00000   1.60109   0.00000
  11        7PZ         0.00000   0.00000   0.98414   0.00000  -1.28522
  12        8PX         0.00000  -0.70395   0.00000   0.00000   0.00000
  13        8PY        -0.57191   0.00000   0.00000  -0.30216   0.00000
  14        8PZ         0.00000   0.00000  -0.08235   0.00000   0.15181
  15        9D 0        0.00000   0.00000  -0.00449   0.00000   0.01309
  16        9D+1        0.00000   0.00410   0.00000   0.00000   0.00000
  17        9D-1       -0.03135   0.00000   0.00000  -0.02243   0.00000
  18        9D+2        0.00000   0.00000   0.00608   0.00000  -0.01164
  19        9D-2        0.00000   0.00000   0.00000   0.00000   0.00000
  20       10D 0        0.00000   0.00000  -0.12485   0.00000   0.22416
  21       10D+1        0.00000  -0.00180   0.00000   0.00000   0.00000
  22       10D-1        0.39040   0.00000   0.00000  -0.72629   0.00000
  23       10D+2        0.00000   0.00000   0.15782   0.00000  -0.32938
  24       10D-2        0.00000   0.00000   0.00000   0.00000   0.00000
  25       11F 0        0.00000   0.00000   0.00360   0.00000  -0.02181
  26       11F+1        0.00000   0.00107   0.00000   0.00000   0.00000
  27       11F-1       -0.02641   0.00000   0.00000  -0.07035   0.00000
  28       11F+2        0.00000   0.00000   0.01863   0.00000  -0.09131
  29       11F-2        0.00000   0.00000   0.00000   0.00000   0.00000
  30       11F+3        0.00000  -0.00146   0.00000   0.00000   0.00000
  31       11F-3        0.00939   0.00000   0.00000   0.03587   0.00000
  32 2   H  1S         -0.95687   0.00000  -0.04200   0.29278   0.25644
  33        2S          1.37998   0.00000   0.25990  -0.83079  -0.77000
  34        3S         -0.45253   0.00000   0.13106   0.32925   0.27355
  35        4PX         0.00000  -0.02542   0.00000   0.00000   0.00000
  36        4PY        -0.17765   0.00000  -0.17740   0.42313   0.49460
  37        4PZ         0.19032   0.00000   0.10349  -0.51493  -0.40252
  38 3   H  1S          0.95687   0.00000  -0.04200  -0.29278   0.25644
  39        2S         -1.37998   0.00000   0.25990   0.83079  -0.77000
  40        3S          0.45253   0.00000   0.13106  -0.32925   0.27355
  41        4PX         0.00000  -0.02542   0.00000   0.00000   0.00000
  42        4PY        -0.17765   0.00000   0.17740   0.42313  -0.49460
  43        4PZ        -0.19032   0.00000   0.10349   0.51493  -0.40252
                          31        32        33        34        35
                        (B1)--V   (A1)--V   (B2)--V   (A2)--V   (B1)--V
     Eigenvalues --     5.14731   5.17030   5.17207   5.19141   5.19276
   1 1   O  1S          0.00000   0.00028   0.00000   0.00000   0.00000
   2        2S          0.00000   0.00087   0.00000   0.00000   0.00000
   3        3S          0.00000  -0.00791   0.00000   0.00000   0.00000
   4        4S          0.00000   0.01817   0.00000   0.00000   0.00000
   5        5S          0.00000  -0.01932   0.00000   0.00000   0.00000
   6        6PX        -0.00007   0.00000   0.00000   0.00000  -0.00051
   7        6PY         0.00000   0.00000  -0.00075   0.00000   0.00000
   8        6PZ         0.00000   0.00197   0.00000   0.00000   0.00000
   9        7PX         0.00023   0.00000   0.00000   0.00000   0.01519
  10        7PY         0.00000   0.00000   0.01140   0.00000   0.00000
  11        7PZ         0.00000  -0.01416   0.00000   0.00000   0.00000
  12        8PX        -0.00049   0.00000   0.00000   0.00000  -0.03510
  13        8PY         0.00000   0.00000  -0.03333   0.00000   0.00000
  14        8PZ         0.00000   0.03391   0.00000   0.00000   0.00000
  15        9D 0        0.00000  -0.05575   0.00000   0.00000   0.00000
  16        9D+1       -0.01006   0.00000   0.00000   0.00000   0.04559
  17        9D-1        0.00000   0.00000   0.00172   0.00000   0.00000
  18        9D+2        0.00000  -0.01757   0.00000   0.00000   0.00000
  19        9D-2        0.00000   0.00000   0.00000  -0.05500   0.00000
  20       10D 0        0.00000   0.00869   0.00000   0.00000   0.00000
  21       10D+1        0.01074   0.00000   0.00000   0.00000  -0.00383
  22       10D-1        0.00000   0.00000   0.00828   0.00000   0.00000
  23       10D+2        0.00000  -0.00424   0.00000   0.00000   0.00000
  24       10D-2        0.00000   0.00000   0.00000   0.00575   0.00000
  25       11F 0        0.00000   0.97434   0.00000   0.00000   0.00000
  26       11F+1        0.79502   0.00000   0.00000   0.00000  -0.60693
  27       11F-1        0.00000   0.00000   0.42208   0.00000   0.00000
  28       11F+2        0.00000  -0.22584   0.00000   0.00000   0.00000
  29       11F-2        0.00000   0.00000   0.00000   1.00190   0.00000
  30       11F+3        0.60649   0.00000   0.00000   0.00000   0.79613
  31       11F-3        0.00000   0.00000   0.90846   0.00000   0.00000
  32 2   H  1S          0.00000  -0.00403  -0.00223   0.00000   0.00000
  33        2S          0.00000   0.01510   0.01340   0.00000   0.00000
  34        3S          0.00000  -0.00174  -0.00181   0.00000   0.00000
  35        4PX         0.00101   0.00000   0.00000   0.08314   0.07042
  36        4PY         0.00000  -0.04274   0.04565   0.00000   0.00000
  37        4PZ         0.00000  -0.04502   0.04728   0.00000   0.00000
  38 3   H  1S          0.00000  -0.00403   0.00223   0.00000   0.00000
  39        2S          0.00000   0.01510  -0.01340   0.00000   0.00000
  40        3S          0.00000  -0.00174   0.00181   0.00000   0.00000
  41        4PX         0.00101   0.00000   0.00000  -0.08314   0.07042
  42        4PY         0.00000   0.04274   0.04565   0.00000   0.00000
  43        4PZ         0.00000  -0.04502  -0.04728   0.00000   0.00000
                          36        37        38        39        40
                        (B2)--V   (A1)--V   (A2)--V   (B1)--V   (A1)--V
     Eigenvalues --     5.32904   5.40097   6.26589   6.26934   6.29638
   1 1   O  1S          0.00000   0.00875   0.00000   0.00000   0.00052
   2        2S          0.00000   0.02607   0.00000   0.00000   0.00152
   3        3S          0.00000  -0.20516   0.00000   0.00000  -0.01404
   4        4S          0.00000   0.11157   0.00000   0.00000   0.01696
   5        5S          0.00000   0.36030   0.00000   0.00000   0.00467
   6        6PX         0.00000   0.00000   0.00000   0.00613   0.00000
   7        6PY        -0.10426   0.00000   0.00000   0.00000   0.00000
   8        6PZ         0.00000   0.11694   0.00000   0.00000   0.01250
   9        7PX         0.00000   0.00000   0.00000  -0.01339   0.00000
  10        7PY         0.20892   0.00000   0.00000   0.00000   0.00000
  11        7PZ         0.00000  -0.22523   0.00000   0.00000  -0.02774
  12        8PX         0.00000   0.00000   0.00000   0.03613   0.00000
  13        8PY         0.05258   0.00000   0.00000   0.00000   0.00000
  14        8PZ         0.00000  -0.18292   0.00000   0.00000   0.03584
  15        9D 0        0.00000   0.09647   0.00000   0.00000   0.94740
  16        9D+1        0.00000   0.00000   0.00000   1.16746   0.00000
  17        9D-1       -0.25449   0.00000   0.00000   0.00000   0.00000
  18        9D+2        0.00000  -0.22248   0.00000   0.00000   0.68691
  19        9D-2        0.00000   0.00000   1.16683   0.00000   0.00000
  20       10D 0        0.00000   0.03602   0.00000   0.00000  -0.51612
  21       10D+1        0.00000   0.00000   0.00000  -0.61318   0.00000
  22       10D-1       -0.07432   0.00000   0.00000   0.00000   0.00000
  23       10D+2        0.00000  -0.04152   0.00000   0.00000  -0.37638
  24       10D-2        0.00000   0.00000  -0.61126   0.00000   0.00000
  25       11F 0        0.00000   0.22816   0.00000   0.00000   0.06603
  26       11F+1        0.00000   0.00000   0.00000   0.03421   0.00000
  27       11F-1        0.89593   0.00000   0.00000   0.00000   0.00000
  28       11F+2        0.00000   0.96907   0.00000   0.00000   0.04071
  29       11F-2        0.00000   0.00000   0.05452   0.00000   0.00000
  30       11F+3        0.00000   0.00000   0.00000  -0.03060   0.00000
  31       11F-3       -0.41247   0.00000   0.00000   0.00000   0.00000
  32 2   H  1S          0.00137   0.02602   0.00000   0.00000  -0.00427
  33        2S         -0.15761  -0.30394   0.00000   0.00000   0.00027
  34        3S          0.01920   0.01024   0.00000   0.00000  -0.00276
  35        4PX         0.00000   0.00000   0.07335  -0.07829   0.00000
  36        4PY         0.17334   0.18264   0.00000   0.00000  -0.06559
  37        4PZ        -0.13065  -0.20476   0.00000   0.00000  -0.08867
  38 3   H  1S         -0.00137   0.02602   0.00000   0.00000  -0.00427
  39        2S          0.15761  -0.30394   0.00000   0.00000   0.00027
  40        3S         -0.01920   0.01024   0.00000   0.00000  -0.00276
  41        4PX         0.00000   0.00000  -0.07335  -0.07829   0.00000
  42        4PY         0.17334  -0.18264   0.00000   0.00000   0.06559
  43        4PZ         0.13065  -0.20476   0.00000   0.00000  -0.08867
                          41        42        43
                        (A1)--V   (B2)--V   (A1)--V
     Eigenvalues --     6.49753   6.72837  43.05958
   1 1   O  1S          0.00425   0.00000  -1.38794
   2        2S          0.01199   0.00000   1.68067
   3        3S         -0.09015   0.00000  -1.41620
   4        4S         -0.11944   0.00000   1.28487
   5        5S          0.57583   0.00000  -0.53799
   6        6PX         0.00000   0.00000   0.00000
   7        6PY         0.00000  -0.11648   0.00000
   8        6PZ         0.08136   0.00000   0.02255
   9        7PX         0.00000   0.00000   0.00000
  10        7PY         0.00000   0.23395   0.00000
  11        7PZ        -0.14907   0.00000  -0.06601
  12        8PX         0.00000   0.00000   0.00000
  13        8PY         0.00000   0.27543   0.00000
  14        8PZ        -0.32940   0.00000   0.05540
  15        9D 0       -0.69466   0.00000  -0.00292
  16        9D+1        0.00000   0.00000   0.00000
  17        9D-1        0.00000   1.19789   0.00000
  18        9D+2        0.93993   0.00000   0.00503
  19        9D-2        0.00000   0.00000   0.00000
  20       10D 0        0.46464   0.00000   0.00972
  21       10D+1        0.00000   0.00000   0.00000
  22       10D-1        0.00000  -0.98592   0.00000
  23       10D+2       -0.63556   0.00000  -0.01678
  24       10D-2        0.00000   0.00000   0.00000
  25       11F 0        0.04124   0.00000   0.00262
  26       11F+1        0.00000   0.00000   0.00000
  27       11F-1        0.00000   0.25471   0.00000
  28       11F+2        0.25227   0.00000   0.01015
  29       11F-2        0.00000   0.00000   0.00000
  30       11F+3        0.00000   0.00000   0.00000
  31       11F-3        0.00000  -0.11915   0.00000
  32 2   H  1S          0.04121  -0.00084   0.00995
  33        2S         -0.42700  -0.39231  -0.03435
  34        3S          0.01410   0.02935   0.07367
  35        4PX         0.00000   0.00000   0.00000
  36        4PY         0.20863   0.21522   0.03194
  37        4PZ        -0.15232  -0.25052  -0.03186
  38 3   H  1S          0.04121   0.00084   0.00995
  39        2S         -0.42700   0.39231  -0.03435
  40        3S          0.01410  -0.02935   0.07367
  41        4PX         0.00000   0.00000   0.00000
  42        4PY        -0.20863   0.21522  -0.03194
  43        4PZ        -0.15232   0.25052  -0.03186
          Condensed to atoms (all electrons):
               1          2          3
     1  O    8.287978   0.215434   0.215434
     2  H    0.215434   0.431905  -0.006762
     3  H    0.215434  -0.006762   0.431905
 Mulliken charges:
               1
     1  O   -0.718845
     2  H    0.359423
     3  H    0.359423
 Sum of Mulliken charges =  -0.00000
 Mulliken charges with hydrogens summed into heavy atoms:
               1
     1  O   -0.000000
 Electronic spatial extent (au):  <R**2>=             25.8066
 Charge=             -0.0000 electrons
 Dipole moment (field-independent basis, Debye):
    X=             -0.0000    Y=             -0.0000    Z=             -3.2700  Tot=              3.2700
 Quadrupole moment (field-independent basis, Debye-Ang):
   XX=             -8.4399   YY=             -3.8056   ZZ=             -5.1737
   XY=              0.0000   XZ=              0.0000   YZ=             -0.0000
 Traceless Quadrupole moment (field-independent basis, Debye-Ang):
   XX=             -2.6335   YY=              2.0008   ZZ=              0.6327
   XY=              0.0000   XZ=              0.0000   YZ=             -0.0000
 Octapole moment (field-independent basis, Debye-Ang**2):
  XXX=              0.0000  YYY=              0.0000  ZZZ=             -2.6455  XYY=             -0.0000
  XXY=              0.0000  XXZ=             -0.2534  XZZ=             -0.0000  YZZ=              0.0000
  YYZ=             -3.5188  XYZ=             -0.0000
 Hexadecapole moment (field-independent basis, Debye-Ang**3):
 XXXX=             -7.8264 YYYY=             -9.6202 ZZZZ=            -10.6410 XXXY=             -0.0000
 XXXZ=             -0.0000 YYYX=              0.0000 YYYZ=              0.0000 ZZZX=             -0.0000
 ZZZY=              0.0000 XXYY=             -3.7005 XXZZ=             -3.4703 YYZZ=             -1.3299
 XXYZ=              0.0000 YYXZ=              0.0000 ZZXY=              0.0000
 N-N= 6.251025345803D+00 E-N=-1.929983581060D+02  KE= 7.531333809903D+01
 Symmetry A1   KE= 6.751609030831D+01
 Symmetry A2   KE= 1.493101950498D-35
 Symmetry B1   KE= 4.579824834227D+00
 Symmetry B2   KE= 3.217422956489D+00
 Orbital energies and kinetic energies (alpha):
                                 1                 2
   1         (A1)--O         -19.245979         29.125872
   2         (A1)--O          -0.926316          2.867721
   3         (B2)--O          -0.397695          1.608711
   4         (A1)--O          -0.384323          1.764452
   5         (B1)--O          -0.311237          2.289912
   6         (A1)--V          -0.053656          1.323124
   7         (B2)--V          -0.011237          1.403746
   8         (B2)--V           0.292272          0.699975
   9         (A1)--V           0.304633          1.061088
  10         (A1)--V           0.420791          1.444688
  11         (B1)--V           0.431289          1.556460
  12         (B2)--V           0.519997          1.511755
  13         (A1)--V           0.605794          1.430352
  14         (A1)--V           1.142918          1.802182
  15         (A2)--V           1.227956          1.885597
  16         (B1)--V           1.267412          1.928220
  17         (B2)--V           1.395099          2.238273
  18         (A1)--V           1.454854          2.369604
  19         (B2)--V           1.533556          2.151048
  20         (A2)--V           1.750969          2.480600
  21         (B1)--V           1.811414          2.529321
  22         (A1)--V           1.879589          2.727333
  23         (A1)--V           2.054292          3.493334
  24         (B2)--V           2.239824          3.989952
  25         (A1)--V           2.394084          4.514126
  26         (B2)--V           2.397374          4.582566
  27         (B1)--V           2.559068          6.900349
  28         (A1)--V           2.659480          7.204046
  29         (B2)--V           3.084470          5.991361
  30         (A1)--V           3.199478          6.775083
  31         (B1)--V           5.147312          6.426021
  32         (A1)--V           5.170304          6.460676
  33         (B2)--V           5.172071          6.455758
  34         (A2)--V           5.191405          6.484626
  35         (B1)--V           5.192759          6.464485
  36         (B2)--V           5.329042          6.790075
  37         (A1)--V           5.400967          6.862507
  38         (A2)--V           6.265887          9.312841
  39         (B1)--V           6.269342          9.316326
  40         (A1)--V           6.296382          9.350575
  41         (A1)--V           6.497532          9.438293
  42         (B2)--V           6.728368          9.672178
  43         (A1)--V          43.059585        108.020081
 Total kinetic energy from orbitals= 7.531333809903D+01
 No NMR shielding tensors so no spin-rotation constants.
 Leave Link  601 at Tue Oct 28 11:47:12 2025, MaxMem=  1048576000 cpu:               0.8 elap:               0.3
 (Enter /home/pcmt/gaussian/g16.C.01/g16/l701.exe)
 ... and contract with generalized density number  0.
 Compute integral first derivatives.
 R6Disp: Adding Grimme-D3(BJ) dispersion energy 1st derivatives to the gradient.
 D1PCM: C-PCM CHGder 1st derivatives, ID1Alg=3 FixD1E=F DoIter=F DoCFld=F I1PDM=0.
 GePol: Maximum number of non-zero 1st derivatives   =     162
 Leave Link  701 at Tue Oct 28 11:47:12 2025, MaxMem=  1048576000 cpu:               1.2 elap:               0.4
 (Enter /home/pcmt/gaussian/g16.C.01/g16/l702.exe)
 L702 exits ... SP integral derivatives will be done elsewhere.
 Leave Link  702 at Tue Oct 28 11:47:12 2025, MaxMem=  1048576000 cpu:               0.1 elap:               0.1
 (Enter /home/pcmt/gaussian/g16.C.01/g16/l703.exe)
 Integral derivatives from FoFJK, PRISM(SPDF).
 Compute integral first derivatives, UseDBF=F ICtDFT=           0.
 Calling FoFJK, ICntrl=      2127 FMM=F ISym2X=1 I1Cent= 0 IOpClX= 0 NMat=1 NMatS=1 NMatT=0.
 FoFJK:  IHMeth= 1 ICntrl=    2127 DoSepK=F KAlg= 0 I1Cent=           0 FoldK=F
 IRaf=         0 NMat=       1 IRICut=       1 DoRegI=T DoRafI=F ISym2E= 1 IDoP0=0 IntGTp=1.
 FoFCou: FMM=F IPFlag=           0 FMFlag=      100000 FMFlg1=         800
         NFxFlg=           0 DoJE=F BraDBF=F KetDBF=F FulRan=T
         wScrn=  0.000000 ICntrl=      2127 IOpCl=  0 I1Cent=           0 NGrid=           0
         NMat0=    1 NMatS0=      1 NMatT0=    0 NMatD0=    1 NMtDS0=    0 NMtDT0=    0
 Petite list used in FoFCou.
 Leave Link  703 at Tue Oct 28 11:47:13 2025, MaxMem=  1048576000 cpu:               2.4 elap:               0.7
 (Enter /home/pcmt/gaussian/g16.C.01/g16/l716.exe)
 Dipole        =-8.18474288D-17 0.00000000D+00-1.28652119D+00
 ***** Axes restored to original set *****
 -------------------------------------------------------------------
 Center     Atomic                   Forces (Hartrees/Bohr)
 Number     Number              X              Y              Z
 -------------------------------------------------------------------
      1        8          -0.000000000    0.166730582    0.000000000
      2        1           0.000000000   -0.083365291   -0.081982055
      3        1           0.000000000   -0.083365291    0.081982055
 -------------------------------------------------------------------
 Cartesian Forces:  Max     0.166730582 RMS     0.078273555
 Leave Link  716 at Tue Oct 28 11:47:13 2025, MaxMem=  1048576000 cpu:               0.2 elap:               0.1
 (Enter /home/pcmt/gaussian/g16.C.01/g16/l103.exe)

 GradGradGradGradGradGradGradGradGradGradGradGradGradGradGradGradGradGrad
 Berny optimization.
 FormGI is forming the generalized inverse of G from B-inverse, IUseBI=4.
 Internal  Forces:  Max     0.116918230 RMS     0.095475263
 Search for a local minimum.
 Step number   1 out of a maximum of   20
 All quantities printed in internal units (Hartrees-Bohrs-Radians)
 RMS Force = .95475D-01 SwitMx=.10000D-02 MixMth= 1
 Mixed Optimization -- RFO/linear search
 Second derivative matrix not updated -- first step.
 The second derivative matrix:
                          R1        R2        A1
           R1           0.13878
           R2           0.00000   0.13878
           A1           0.00000   0.00000   0.16000
 ITU=  0
     Eigenvalues ---    0.13878   0.13878   0.16000
 RFO step:  Lambda=-1.09945825D-01 EMin= 1.38777057D-01
 Linear search not attempted -- first point.
 Maximum step size (   0.300) exceeded in Quadratic search.
    -- Step size scaled by   0.451
 Iteration  1 RMS(Cart)=  0.13143042 RMS(Int)=  0.00989513
 Iteration  2 RMS(Cart)=  0.00823647 RMS(Int)=  0.00000101
 Iteration  3 RMS(Cart)=  0.00000141 RMS(Int)=  0.00000000
 Iteration  4 RMS(Cart)=  0.00000000 RMS(Int)=  0.00000000
 ITry= 1 IFail=0 DXMaxC= 1.46D-01 DCOld= 1.00D+10 DXMaxT= 3.00D-01 DXLimC= 3.00D+00 Rises=F
 ClnCor:  largest displacement from symmetrization is 4.97D-16 for atom     3.
 Variable       Old X    -DE/DX   Delta X   Delta X   Delta X     New X
                                 (Linear)    (Quad)   (Total)
    R1        2.67248  -0.11692   0.00000  -0.21211  -0.21211   2.46037
    R2        2.67248  -0.11692   0.00000  -0.21211  -0.21211   2.46037
    A1        1.57080   0.00261   0.00000   0.00437   0.00437   1.57517
         Item               Value     Threshold  Converged?
 Maximum Force            0.116918     0.000450     NO 
 RMS     Force            0.095475     0.000300     NO 
 Maximum Displacement     0.146188     0.001800     NO 
 RMS     Displacement     0.139653     0.001200     NO 
 Predicted change in Energy=-4.336519D-02
 Lowest energy point so far.  Saving SCF results.
 GradGradGradGradGradGradGradGradGradGradGradGradGradGradGradGradGradGrad

 Leave Link  103 at Tue Oct 28 11:47:13 2025, MaxMem=  1048576000 cpu:               0.1 elap:               0.1
 (Enter /home/pcmt/gaussian/g16.C.01/g16/l202.exe)
                          Input orientation:                          
 ---------------------------------------------------------------------
 Center     Atomic      Atomic             Coordinates (Angstroms)
 Number     Number       Type             X           Y           Z
 ---------------------------------------------------------------------
      1          8           0        0.000000    0.054254    0.000000
      2          1           0        0.000000    0.972873    0.922641
      3          1           0       -0.000000    0.972873   -0.922641
 ---------------------------------------------------------------------
                    Distance matrix (angstroms):
                    1          2          3
     1  O    0.000000
     2  H    1.301970   0.000000
     3  H    1.301970   1.845282   0.000000
 Stoichiometry    H2O
 Framework group  C2V[C2(O),SGV(H2)]
 Deg. of freedom     2
 Full point group                 C2V     NOp   4
 RotChk:  IX=0 Diff= 7.05D-16
 Largest Abelian subgroup         C2V     NOp   4
 Largest concise Abelian subgroup C2      NOp   2
                         Standard orientation:                         
 ---------------------------------------------------------------------
 Center     Atomic      Atomic             Coordinates (Angstroms)
 Number     Number       Type             X           Y           Z
 ---------------------------------------------------------------------
      1          8           0        0.000000    0.000000    0.183724
      2          1           0       -0.000000    0.922641   -0.734895
      3          1           0       -0.000000   -0.922641   -0.734895
 ---------------------------------------------------------------------
 Rotational constants (GHZ):         334.5624538         294.5348282         156.6376102
 Leave Link  202 at Tue Oct 28 11:47:13 2025, MaxMem=  1048576000 cpu:               0.1 elap:               0.1
 (Enter /home/pcmt/gaussian/g16.C.01/g16/l301.exe)
 Basis read from rwf:  (5D, 7F)
 No pseudopotential information found on rwf file.
 There are    22 symmetry adapted cartesian basis functions of A1  symmetry.
 There are     4 symmetry adapted cartesian basis functions of A2  symmetry.
 There are     9 symmetry adapted cartesian basis functions of B1  symmetry.
 There are    13 symmetry adapted cartesian basis functions of B2  symmetry.
 There are    19 symmetry adapted basis functions of A1  symmetry.
 There are     4 symmetry adapted basis functions of A2  symmetry.
 There are     8 symmetry adapted basis functions of B1  symmetry.
 There are    12 symmetry adapted basis functions of B2  symmetry.
    43 basis functions,    67 primitive gaussians,    48 cartesian basis functions
     5 alpha electrons        5 beta electrons
       nuclear repulsion energy         6.7898685607 Hartrees.
 IExCor= 1009 DFT=T Ex+Corr=PBE1PBE ExCW=0 ScaHFX=  0.250000
 ScaDFX=  0.750000  0.750000  1.000000  1.000000 ScalE2=  1.000000  1.000000
 IRadAn=      5 IRanWt=     -1 IRanGd=            0 ICorTp=0 IEmpDi=141
 NAtoms=    3 NActive=    3 NUniq=    2 SFac= 2.25D+00 NAtFMM=   60 NAOKFM=F Big=F
 Integral buffers will be    131072 words long.
 Raffenetti 2 integral format.
 Two-electron integral symmetry is turned on.
 R6Disp:  Grimme-D3(BJ) Dispersion energy=       -0.0004284848 Hartrees.
 Nuclear repulsion after empirical dispersion term =        6.7894400758 Hartrees.
 No density basis found on file    724.
 ------------------------------------------------------------------------------
 Polarizable Continuum Model (PCM)
 =================================
 Model                : C-PCM.
 Atomic radii         : Klamt.
 Polarization charges : Total charges.
 Charge compensation  : None.
 Solution method      : On-the-fly selection.
 Cavity type          : Scaled VdW (van der Waals Surface) (Alpha=1.100).
 Cavity algorithm     : GePol (No added spheres)
                        Default sphere list used, NSphG=    3.
                        Lebedev-Laikov grids with approx.  5.0 points / Ang**2.
                        Smoothing algorithm: York/Karplus (Gamma=1.0000).
                        Polarization charges: spherical gaussians, with
                                              point-specific exponents (IZeta= 3).
                        Self-potential: point-specific (ISelfS= 7).
                        Self-field    : sphere-specific E.n sum rule (ISelfD= 2).
 1st derivatives      : Analytical E(r).r(x)/FMM algorithm (CHGder, D1EAlg=3).
                        Cavity 1st derivative terms included.
 Solvent              : Water, Eps=  78.355300 Eps(inf)=   1.777849
 ------------------------------------------------------------------------------
 Spheres list:
 ISph  on   Nord     Re0    Alpha      Xe            Ye            Ze
    1   O      1    1.7200  1.000      0.000000      0.000000      0.183724
    2   H      2    1.3000  1.000     -0.000000      0.922641     -0.734895
    3   H      3    1.3000  1.000     -0.000000     -0.922641     -0.734895
 ------------------------------------------------------------------------------
 GePol: Number of generator spheres                  =       3
 GePol: Total number of spheres                      =       3
 GePol: Number of exposed spheres                    =       3 (100.00%)
 GePol: Number of points                             =     280
 GePol: Average weight of points                     =       0.17
 GePol: Minimum weight of points                     =   0.13D-03
 GePol: Maximum weight of points                     =    0.21253
 GePol: Number of points with low weight             =       5
 GePol: Fraction of low-weight points (<1% of avg)   =       1.79%
 GePol: Cavity surface area                          =     48.694 Ang**2
 GePol: Cavity volume                                =     29.056 Ang**3
 Leave Link  301 at Tue Oct 28 11:47:13 2025, MaxMem=  1048576000 cpu:               0.5 elap:               0.2
 (Enter /home/pcmt/gaussian/g16.C.01/g16/l302.exe)
 NPDir=0 NMtPBC=     1 NCelOv=     1 NCel=       1 NClECP=     1 NCelD=      1
         NCelK=      1 NCelE2=     1 NClLst=     1 CellRange=     0.0.
 One-electron integrals computed using PRISM.
 One-electron integral symmetry used in STVInt
 NBasis=    43 RedAO= T EigKep=  1.79D-02  NBF=    19     4     8    12
 NBsUse=    43 1.00D-06 EigRej= -1.00D+00 NBFU=    19     4     8    12
 Precomputing XC quadrature grid using
 IXCGrd= 4 IRadAn=           5 IRanWt=          -1 IRanGd=           0 AccXCQ= 0.00D+00.
 Generated NRdTot=       0 NPtTot=           0 NUsed=           0 NTot=          32
 NSgBfM=    48    48    48    48    48 MxSgAt=     3 MxSgA2=     3.
 Leave Link  302 at Tue Oct 28 11:47:14 2025, MaxMem=  1048576000 cpu:               0.8 elap:               0.2
 (Enter /home/pcmt/gaussian/g16.C.01/g16/l303.exe)
 DipDrv:  MaxL=1.
 Leave Link  303 at Tue Oct 28 11:47:14 2025, MaxMem=  1048576000 cpu:               0.1 elap:               0.1
 (Enter /home/pcmt/gaussian/g16.C.01/g16/l401.exe)
 Initial guess from the checkpoint file:  "H2O.pbe0-d3bj-cosmo.optg-freq.chk"
 B after Tr=     0.000000    0.000000    0.000000
[...]
 ! R1    R(1,2)                  0.736                  49.9                    !
 ! R2    R(1,3)                  0.736                  49.9                    !
 --------------------------------------------------------------------------------
                           ----------------------------
                           ! Normal Mode     3        !
 --------------------------                            --------------------------
 ! Name  Definition              Value          Relative Weight (%)             !
 --------------------------------------------------------------------------------
 ! R1    R(1,2)                  0.7607                 50.0                    !
 ! R2    R(1,3)                 -0.7607                 50.0                    !
 --------------------------------------------------------------------------------
 Max01P=      3 Av01P=    2.33 Stan. Dev.=    0.58
 Max05P=      2 Av05P=    1.67 Stan. Dev.=    0.58
 Max10P=      2 Av10P=    1.67 Stan. Dev.=    0.58
 MaxNDP=      2 AvNDP=    1.67 Stan. Dev.=    0.58
 
                                                  H2O.pbe0-d3bj-cosmo.optg-freq.c
 hk
                                                             IR Spectrum
 
     3  3                                                                       1                                                    
     9  8                                                                       6                                                    
     1  2                                                                       0                                                    
     1  6                                                                       2                                                    
 
     X  X                                                                       X                                                    
     X  X                                                                       X                                                    
     X  X                                                                       X                                                    
     X  X                                                                       X                                                    
     X  X                                                                       X                                                    
     X                                                                          X                                                    
     X                                                                          X                                                    
     X                                                                          X                                                    
     X                                                                          X                                                    
     X                                                                          X                                                    
     X                                                                          X                                                    
     X                                                                          X                                                    
     X                                                                          X                                                    
     X                                                                          X                                                    
     X                                                                          X                                                    
     X                                                                          X                                                    
     X                                                                          X                                                    
     X                                                                          X                                                    
                                                                                X                                                    
                                                                                X                                                    
 
 
                                                  H2O.pbe0-d3bj-cosmo.optg-freq.c
 hk
                                                            Raman Spectrum
 
     3  3                                                                       1                                                    
     9  8                                                                       6                                                    
     1  2                                                                       0                                                    
     1  6                                                                       2                                                    
 
     X  X                                                                       X                                                    
     X  X                                                                                                                            
     X  X                                                                                                                            
     X  X                                                                                                                            
     X  X                                                                                                                            
     X  X                                                                                                                            
     X  X                                                                                                                            
     X  X                                                                                                                            
     X  X                                                                                                                            
        X                                                                                                                            
        X                                                                                                                            
        X                                                                                                                            
        X                                                                                                                            
        X                                                                                                                            
        X                                                                                                                            
        X                                                                                                                            
        X                                                                                                                            
        X                                                                                                                            
        X                                                                                                                            
        X                                                                                                                            
 
 ***** Axes restored to original set *****
 -------------------------------------------------------------------
 Center     Atomic                   Forces (Hartrees/Bohr)
 Number     Number              X              Y              Z
 -------------------------------------------------------------------
      1        8          -0.000000000    0.000244471   -0.000000000
      2        1          -0.000000000   -0.000122236   -0.000156215
      3        1           0.000000000   -0.000122236    0.000156215
 -------------------------------------------------------------------
 Cartesian Forces:  Max     0.000244471 RMS     0.000124032
 Force constants in Cartesian coordinates: 
                1             2             3             4             5 
      1  0.524498D-03
      2  0.000000D+00  0.458034D+00
      3  0.000000D+00  0.000000D+00  0.672333D+00
      4 -0.262249D-03  0.000000D+00  0.000000D+00  0.152073D-03
      5  0.000000D+00 -0.229017D+00 -0.262378D+00  0.000000D+00  0.216877D+00
      6  0.000000D+00 -0.206644D+00 -0.336166D+00  0.000000D+00  0.234511D+00
      7 -0.262249D-03  0.000000D+00  0.000000D+00  0.110176D-03  0.000000D+00
      8  0.000000D+00 -0.229017D+00  0.262378D+00  0.000000D+00  0.121404D-01
      9  0.000000D+00  0.206644D+00 -0.336166D+00  0.000000D+00  0.278670D-01
                6             7             8             9 
      6  0.367248D+00
      7  0.000000D+00  0.152073D-03
      8 -0.278670D-01  0.000000D+00  0.216877D+00
      9 -0.310818D-01  0.000000D+00 -0.234511D+00  0.367248D+00
 FormGI is forming the generalized inverse of G from B-inverse, IUseBI=4.
 Force constants in internal coordinates: 
                1             2             3 
      1  0.537670D+00
      2 -0.293576D-02  0.537670D+00
      3  0.287644D-01  0.287644D-01  0.153006D+00
 Leave Link  716 at Tue Oct 28 11:47:52 2025, MaxMem=  1048576000 cpu:               0.2 elap:               0.1
 (Enter /home/pcmt/gaussian/g16.C.01/g16/l103.exe)

 GradGradGradGradGradGradGradGradGradGradGradGradGradGradGradGradGradGrad
 Berny optimization.
 Red2BG is reusing G-inverse.
 Internal  Forces:  Max     0.000198355 RMS     0.000161956
 Search for a local minimum.
 Step number   1 out of a maximum of    2
 All quantities printed in internal units (Hartrees-Bohrs-Radians)
 Second derivative matrix not updated -- analytic derivatives used.
 The second derivative matrix:
                          R1        R2        A1
           R1           0.53767
           R2          -0.00294   0.53767
           A1           0.02876   0.02876   0.15301
 ITU=  0
     Eigenvalues ---    0.14872   0.53902   0.54061
 Angle between quadratic step and forces=  15.20 degrees.
 Linear search not attempted -- first point.
 Iteration  1 RMS(Cart)=  0.00023817 RMS(Int)=  0.00000002
 Iteration  2 RMS(Cart)=  0.00000002 RMS(Int)=  0.00000000
 ITry= 1 IFail=0 DXMaxC= 2.26D-04 DCOld= 1.00D+10 DXMaxT= 3.00D-01 DXLimC= 3.00D+00 Rises=F
 ClnCor:  largest displacement from symmetrization is 3.14D-16 for atom     3.
 Variable       Old X    -DE/DX   Delta X   Delta X   Delta X     New X
                                 (Linear)    (Quad)   (Total)
    R1        1.81882  -0.00020   0.00000  -0.00038  -0.00038   1.81844
    R2        1.81882  -0.00020   0.00000  -0.00038  -0.00038   1.81844
    A1        1.81750   0.00000   0.00000   0.00015   0.00015   1.81764
         Item               Value     Threshold  Converged?
 Maximum Force            0.000198     0.000450     YES
 RMS     Force            0.000162     0.000300     YES
 Maximum Displacement     0.000226     0.001800     YES
 RMS     Displacement     0.000238     0.001200     YES
 Predicted change in Energy=-7.519681D-08
 Optimization completed.
    -- Stationary point found.
                           ----------------------------
                           !   Optimized Parameters   !
                           ! (Angstroms and Degrees)  !
 --------------------------                            --------------------------
 ! Name  Definition              Value          Derivative Info.                !
 --------------------------------------------------------------------------------
 ! R1    R(1,2)                  0.9625         -DE/DX =   -0.0002              !
 ! R2    R(1,3)                  0.9625         -DE/DX =   -0.0002              !
 ! A1    A(2,1,3)              104.1348         -DE/DX =    0.0                 !
 --------------------------------------------------------------------------------
 GradGradGradGradGradGradGradGradGradGradGradGradGradGradGradGradGradGrad

 Leave Link  103 at Tue Oct 28 11:47:52 2025, MaxMem=  1048576000 cpu:               0.1 elap:               0.1
 (Enter /home/pcmt/gaussian/g16.C.01/g16/l9999.exe)

 ----------------------------------------------------------------------

 Electric dipole moment (input orientation):
 (Debye = 10**-18 statcoulomb cm , SI units = C m)
                  (au)            (Debye)         (10**-30 SI)
   Tot        0.960820D+00      0.244216D+01      0.814618D+01
   x          0.000000D+00      0.000000D+00      0.000000D+00
   y          0.960820D+00      0.244216D+01      0.814618D+01
   z          0.000000D+00      0.000000D+00      0.000000D+00

 Dipole polarizability, Alpha (input orientation).
 (esu units = cm**3 , SI units = C**2 m**2 J**-1)
 Alpha(0;0):
               (au)            (10**-24 esu)      (10**-40 SI)
   iso        0.742916D+01      0.110089D+01      0.122490D+01
   aniso      0.246071D+01      0.364639D+00      0.405716D+00
   xx         0.604316D+01      0.895503D+00      0.996382D+00
   yx         0.000000D+00      0.000000D+00      0.000000D+00
   yy         0.736215D+01      0.109096D+01      0.121386D+01
   zx         0.000000D+00      0.000000D+00      0.000000D+00
   zy         0.000000D+00      0.000000D+00      0.000000D+00
   zz         0.888216D+01      0.131620D+01      0.146447D+01

 First dipole hyperpolarizability, Beta (input orientation).
 ||, _|_  parallel and perpendicular components, (z) with respect to z axis,
 vector components x,y,z.  Values do not include the 1/n! factor of 1/2.
 (esu units = statvolt**-1 cm**4 , SI units = C**3 m**3 J**-2)
 Beta(0;0,0):
               (au)            (10**-30 esu)      (10**-50 SI)
   || (z)     0.000000D+00      0.000000D+00      0.000000D+00
   _|_(z)     0.000000D+00      0.000000D+00      0.000000D+00
   x          0.000000D+00      0.000000D+00      0.000000D+00
   y          0.115794D+03      0.100037D+01      0.371277D+00
   z          0.000000D+00      0.000000D+00      0.000000D+00
   ||         0.231588D+02      0.200074D+00      0.742555D-01
   xxx        0.000000D+00      0.000000D+00      0.000000D+00
   xxy        0.331858D+01      0.286699D-01      0.106406D-01
   yxy        0.000000D+00      0.000000D+00      0.000000D+00
   yyy        0.131444D+02      0.113557D+00      0.421457D-01
   xxz        0.000000D+00      0.000000D+00      0.000000D+00
   yxz        0.000000D+00      0.000000D+00      0.000000D+00
   yyz        0.000000D+00      0.000000D+00      0.000000D+00
   zxz        0.000000D+00      0.000000D+00      0.000000D+00
   zyz        0.221350D+02      0.191229D+00      0.709729D-01
   zzz        0.000000D+00      0.000000D+00      0.000000D+00

 ----------------------------------------------------------------------

 Dipole orientation:
     8          0.00000000         -0.00000000          0.51442448
     1          0.00000000         -1.43456489          1.63251389
     1         -0.00000000          1.43456489          1.63251389

 Electric dipole moment (dipole orientation):
 (Debye = 10**-18 statcoulomb cm , SI units = C m)
                  (au)            (Debye)         (10**-30 SI)
   Tot        0.960820D+00      0.244216D+01      0.814618D+01
   x          0.000000D+00      0.000000D+00      0.000000D+00
   y          0.000000D+00      0.000000D+00      0.000000D+00
   z          0.960820D+00      0.244216D+01      0.814618D+01

 Dipole polarizability, Alpha (dipole orientation).
 (esu units = cm**3 , SI units = C**2 m**2 J**-1)
 Alpha(0;0):
               (au)            (10**-24 esu)      (10**-40 SI)
   iso        0.742916D+01      0.110089D+01      0.122490D+01
   aniso      0.246071D+01      0.364639D+00      0.405716D+00
   xx         0.604316D+01      0.895503D+00      0.996382D+00
   yx         0.000000D+00      0.000000D+00      0.000000D+00
   yy         0.888216D+01      0.131620D+01      0.146447D+01
   zx         0.000000D+00      0.000000D+00      0.000000D+00
   zy         0.000000D+00      0.000000D+00      0.000000D+00
   zz         0.736215D+01      0.109096D+01      0.121386D+01

 First dipole hyperpolarizability, Beta (dipole orientation).
 ||, _|_  parallel and perpendicular components, (z) with respect to z axis,
 vector components x,y,z.  Values do not include the 1/n! factor of 1/2.
 (esu units = statvolt**-1 cm**4 , SI units = C**3 m**3 J**-2)
 Beta(0;0,0):
               (au)            (10**-30 esu)      (10**-50 SI)
   || (z)     0.231588D+02      0.200074D+00      0.742555D-01
   _|_(z)     0.771960D+01      0.666913D-01      0.247518D-01
   x          0.000000D+00      0.000000D+00      0.000000D+00
   y          0.000000D+00      0.000000D+00      0.000000D+00
   z          0.115794D+03      0.100037D+01      0.371277D+00
   ||         0.231588D+02      0.200074D+00      0.742555D-01
   xxx        0.000000D+00      0.000000D+00      0.000000D+00
   xxy        0.000000D+00      0.000000D+00      0.000000D+00
   yxy        0.000000D+00      0.000000D+00      0.000000D+00
   yyy        0.000000D+00      0.000000D+00      0.000000D+00
   xxz        0.331858D+01      0.286699D-01      0.106406D-01
   yxz        0.000000D+00      0.000000D+00      0.000000D+00
   yyz        0.221350D+02      0.191229D+00      0.709729D-01
   zxz        0.000000D+00      0.000000D+00      0.000000D+00
   zyz        0.000000D+00      0.000000D+00      0.000000D+00
   zzz        0.131444D+02      0.113557D+00      0.421457D-01

 ----------------------------------------------------------------------

 Test job not archived.
 1\1\GINC-U-0-12\Freq\RPBE1PBE\Gen\H2O1\ROOT\28-Oct-2025\0\\#P Geom=All
 Check Guess=TCheck SCRF=Check Test GenChk RPBE1PBE/ChkBas Freq\\H2O.pb
 e0-d3bj-cosmo.optg-freq.chk\\0,1\O,0.,0.2722217105,0.\H,0.,0.863889144
 8,0.7591390451\H,0.,0.8638891448,-0.7591390451\\Version=ES64L-G16RevC.
 01\State=1-A1\HF=-76.3894657\RMSD=8.875e-11\RMSF=1.240e-04\ZeroPoint=0
 .0212751\Thermal=0.0241109\ETot=-76.3653548\HTot=-76.3644106\GTot=-76.
 3858379\Dipole=0.,0.9608205,0.\DipoleDeriv=-0.8582277,0.,0.,0.,-0.5411
 149,0.,0.,0.,-0.6775828,0.4291138,0.,0.,0.,0.2705575,-0.0705704,0.,-0.
 0468609,0.3387914,0.4291138,0.,0.,0.,0.2705575,0.0705704,0.,0.0468609,
 0.3387914\Polar=6.0431557,0.,7.3621531,0.,0.,8.8821634\PolarDeriv=0.,-
 1.1629339,0.,0.,0.,0.,-0.5196148,0.,-6.7805363,0.,0.,-5.4238857,0.,0.,
 0.,0.,-5.3552935,0.,0.,0.5814669,0.,0.9885211,0.,0.,0.2598074,0.,3.390
 2682,0.,2.6206697,2.7119428,0.005118,0.,1.893735,0.,2.6776468,5.524241
 5,0.,0.5814669,0.,-0.9885211,0.,0.,0.2598074,0.,3.3902682,0.,-2.620669
 7,2.7119428,-0.005118,0.,-1.893735,0.,2.6776468,-5.5242415\HyperPolar=
 0.,3.3185798,0.,13.1443974,0.,0.,0.,0.,22.1350178,0.\Quadrupole=-1.192
 5925,-0.1657493,1.3583417,0.,0.,0.\PG=C02V [C2(O1),SGV(H2)]\NImag=0\\0
 .00052450,0.,0.45803446,0.,0.,0.67233251,-0.00026225,0.,0.,0.00015207,
 0.,-0.22901723,-0.26237761,0.,0.21687680,0.,-0.20664359,-0.33616625,0.
 ,0.23451060,0.36724804,-0.00026225,0.,0.,0.00011018,0.,0.,0.00015207,0
 .,-0.22901723,0.26237761,0.,0.01214043,-0.02786701,0.,0.21687680,0.,0.
 20664359,-0.33616625,0.,0.02786701,-0.03108178,0.,-0.23451060,0.367248
 04\\0.,-0.00024447,0.,0.,0.00012224,0.00015621,0.,0.00012224,-0.000156
 21\\\@


 PICNIC:  A SNACK IN THE GRASS.
 Job cpu time:       0 days  0 hours  0 minutes 47.8 seconds.
 Elapsed time:       0 days  0 hours  0 minutes 14.4 seconds.
 File lengths (MBytes):  RWF=      6 Int=      0 D2E=      0 Chk=      2 Scr=      1
 Normal termination of Gaussian 16 at Tue Oct 28 11:47:52 2025.
