 Entering Gaussian System, Link 0=/home/pcmt/gaussian/g16.C.01/g16/g16
 Initial command:
 /home/pcmt/gaussian/g16.C.01/g16/l1.exe "/state/partition2/vallet/1080483.phlam-s-sakura/Gau-40785.inp" -scrdir="/state/partition2/vallet/1080483.phlam-s-sakura/"
 Entering Link 1 = /home/pcmt/gaussian/g16.C.01/g16/l1.exe PID=     40786.
  
 Copyright (c) 1988-2019, Gaussian, Inc.  All Rights Reserved.
  
 This is part of the Gaussian(R) 16 program.  It is based on
 the Gaussian(R) 09 system (copyright 2009, Gaussian, Inc.),
 the Gaussian(R) 03 system (copyright 2003, Gaussian, Inc.),
 the Gaussian(R) 98 system (copyright 1998, Gaussian, Inc.),
 the Gaussian(R) 94 system (copyright 1995, Gaussian, Inc.),
 the Gaussian 92(TM) system (copyright 1992, Gaussian, Inc.),
 the Gaussian 90(TM) system (copyright 1990, Gaussian, Inc.),
 the Gaussian 88(TM) system (copyright 1988, Gaussian, Inc.),
 the Gaussian 86(TM) system (copyright 1986, Carnegie Mellon
 University), and the Gaussian 82(TM) system (copyright 1983,
 Carnegie Mellon University). Gaussian is a federally registered
 trademark of Gaussian, Inc.
  
 This software contains proprietary and confidential information,
 including trade secrets, belonging to Gaussian, Inc.
  
 This software is provided under written license and may be
 used, copied, transmitted, or stored only in accord with that
 written license.
  
 The following legend is applicable only to US Government
 contracts under FAR:
  
                    RESTRICTED RIGHTS LEGEND
  
 Use, reproduction and disclosure by the US Government is
 subject to restrictions as set forth in subparagraphs (a)
 and (c) of the Commercial Computer Software - Restricted
 Rights clause in FAR 52.227-19.
  
 Gaussian, Inc.
 340 Quinnipiac St., Bldg. 40, Wallingford CT 06492
  
  
 ---------------------------------------------------------------
 Warning -- This program may not be used in any manner that
 competes with the business of Gaussian, Inc. or will provide
 assistance to any competitor of Gaussian, Inc.  The licensee
 of this program is prohibited from giving any competitor of
 Gaussian, Inc. access to this program.  By using this program,
 the user acknowledges that Gaussian, Inc. is engaged in the
 business of creating and licensing software in the field of
 computational chemistry and represents and warrants to the
 licensee that it is not a competitor of Gaussian, Inc. and that
 it will not use this program in any manner prohibited above.
 ---------------------------------------------------------------
  

 Cite this work as:
 Gaussian 16, Revision C.01,
 M. J. Frisch, G. W. Trucks, H. B. Schlegel, G. E. Scuseria, 
 M. A. Robb, J. R. Cheeseman, G. Scalmani, V. Barone, 
 G. A. Petersson, H. Nakatsuji, X. Li, M. Caricato, A. V. Marenich, 
 J. Bloino, B. G. Janesko, R. Gomperts, B. Mennucci, H. P. Hratchian, 
 J. V. Ortiz, A. F. Izmaylov, J. L. Sonnenberg, D. Williams-Young, 
 F. Ding, F. Lipparini, F. Egidi, J. Goings, B. Peng, A. Petrone, 
 T. Henderson, D. Ranasinghe, V. G. Zakrzewski, J. Gao, N. Rega, 
 G. Zheng, W. Liang, M. Hada, M. Ehara, K. Toyota, R. Fukuda, 
 J. Hasegawa, M. Ishida, T. Nakajima, Y. Honda, O. Kitao, H. Nakai, 
 T. Vreven, K. Throssell, J. A. Montgomery, Jr., J. E. Peralta, 
 F. Ogliaro, M. J. Bearpark, J. J. Heyd, E. N. Brothers, K. N. Kudin, 
 V. N. Staroverov, T. A. Keith, R. Kobayashi, J. Normand, 
 K. Raghavachari, A. P. Rendell, J. C. Burant, S. S. Iyengar, 
 J. Tomasi, M. Cossi, J. M. Millam, M. Klene, C. Adamo, R. Cammi, 
 J. W. Ochterski, R. L. Martin, K. Morokuma, O. Farkas, 
 J. B. Foresman, and D. J. Fox, Gaussian, Inc., Wallingford CT, 2019.
 
 ******************************************
 Gaussian 16:  ES64L-G16RevC.01  3-Jul-2019
                15-Nov-2025 
 ******************************************
 %mem=8000Mb
 %NProc=4
 Will use up to    4 processors via shared memory.
 %oldchk=H2.pbe0-d3bj-cosmo.optg-freq.chk
 %chk=H2.pbe0-d3bj-gp.sp.chk
 Copying data from "H2.pbe0-d3bj-cosmo.optg-freq.chk" to current chk file "H2.pbe0-d3bj-gp.sp.chk"
 IOpt=  2 FromEx=T IUOpen= 4 IOptOp= 5 NList=   0 IFRang= 0 IUIn= 4 IUOut= 2.
 ----------------------------------------------------------------------
 #p PBE1PBE/GEN GFInput GFOldPrint 5D 7F IOP(4/69=2, 6/7=3) EmpiricalDi
 spersion=GD3BJ Scf=(NoVarAcc,MaxCycle=200,conver=8) Integral=(Grid=Ult
 raFine) Guess=CheckPoint Geom=CheckPoint Symm=Loose
 ----------------------------------------------------------------------
 1/29=2,38=1,172=1/1;
 2/12=2,17=4,18=3,40=1/2;
 3/5=7,8=11,11=2,14=-4,24=11,25=1,30=1,74=-13,75=-5,116=-2,124=41/1,2,3;
 4/5=1,69=2/1;
 5/5=2,6=8,7=200,38=6/2;
 6/7=3,8=2,9=2,10=2,28=1/1;
 99/5=1,9=1/99;
 Leave Link    1 at Sat Nov 15 13:14:05 2025, MaxMem=  1048576000 cpu:               0.4 elap:               0.1
 (Enter /home/pcmt/gaussian/g16.C.01/g16/l101.exe)
 -----------------------------------
 HClO4.pbe0-d3bj-cosmo.optg-freq.chk
 -----------------------------------
 Structure from the checkpoint file:  "H2.pbe0-d3bj-gp.sp.chk"
 Charge =  0 Multiplicity = 1
 Redundant internal coordinates found in file.  (old form).
 H,0,0.,0.,0.6266948885
 H,0,0.,0.,1.3733051115
 Recover connectivity data from disk.
 ITRead=  0  0
 MicOpt= -1 -1
                           ----------------------------
                           !    Current Parameters    !
                           ! (Angstroms and Degrees)  !
 --------------------------                            --------------------------
 ! Name  Definition              Value                                          !
 --------------------------------------------------------------------------------
 ! R1    R(1,2)                  0.7466                                         !
 --------------------------------------------------------------------------------
 NAtoms=      2 NQM=        2 NQMF=       0 NMMI=      0 NMMIF=      0
                NMic=       0 NMicF=      0.
                    Isotopes and Nuclear Properties:
 (Nuclear quadrupole moments (NQMom) in fm**2, nuclear magnetic moments (NMagM)
  in nuclear magnetons)

  Atom         1           2
 IAtWgt=           1           1
 AtmWgt=   1.0078250   1.0078250
 NucSpn=           1           1
 AtZEff=   1.0000000   1.0000000
 NQMom=    0.0000000   0.0000000
 NMagM=    2.7928460   2.7928460
 AtZNuc=   1.0000000   1.0000000
 Leave Link  101 at Sat Nov 15 13:14:05 2025, MaxMem=  1048576000 cpu:               0.8 elap:               0.3
 (Enter /home/pcmt/gaussian/g16.C.01/g16/l202.exe)
                          Input orientation:                          
 ---------------------------------------------------------------------
 Center     Atomic      Atomic             Coordinates (Angstroms)
 Number     Number       Type             X           Y           Z
 ---------------------------------------------------------------------
      1          1           0        0.000000    0.000000    0.626695
      2          1           0        0.000000    0.000000    1.373305
 ---------------------------------------------------------------------
 Stoichiometry    H2
 Framework group  D*H[C*(H.H)]
 Deg. of freedom     1
 Full point group                 D*H     NOp   8
 RotChk:  IX=0 Diff= 0.00D+00
 Largest Abelian subgroup         D2H     NOp   8
 Largest concise Abelian subgroup C2      NOp   2
                         Standard orientation:                         
 ---------------------------------------------------------------------
 Center     Atomic      Atomic             Coordinates (Angstroms)
 Number     Number       Type             X           Y           Z
 ---------------------------------------------------------------------
      1          1           0        0.000000    0.000000    0.373305
      2          1           0        0.000000    0.000000   -0.373305
 ---------------------------------------------------------------------
 Rotational constants (GHZ):           0.0000000        1799.1782310        1799.1782310
 Leave Link  202 at Sat Nov 15 13:14:05 2025, MaxMem=  1048576000 cpu:               0.1 elap:               0.0
 (Enter /home/pcmt/gaussian/g16.C.01/g16/l301.exe)
 General basis read from cards:  (5D, 7F)
 Centers:       1      2
 Def2TZVP
 ****
 Ernie: Thresh=  0.10000D-02 Tol=  0.10000D-05 Strict=F.
 AO basis set in the form of general basis input (Overlap normalization):
      1 0
 S   3 1.00       0.000000000000
      0.3406134100D+02  0.2543930721D-01
      0.5123574600D+01  0.1900859489D+00
      0.1164662600D+01  0.8524411301D+00
 S   1 1.00       0.000000000000
      0.3272304100D+00  0.1000000000D+01
 S   1 1.00       0.000000000000
      0.1030724100D+00  0.1000000000D+01
 P   1 1.00       0.000000000000
      0.8000000000D+00  0.1000000000D+01
 ****
      2 0
 S   3 1.00       0.000000000000
      0.3406134100D+02  0.2543930721D-01
      0.5123574600D+01  0.1900859489D+00
      0.1164662600D+01  0.8524411301D+00
 S   1 1.00       0.000000000000
      0.3272304100D+00  0.1000000000D+01
 S   1 1.00       0.000000000000
      0.1030724100D+00  0.1000000000D+01
 P   1 1.00       0.000000000000
      0.8000000000D+00  0.1000000000D+01
 ****

 ***********************************************************************************************************************************
 *             ATOMIC CENTER             *        ATOMIC ORBITAL       *                     GAUSSIAN FUNCTIONS                    *
 ***********************************************************************************************************************************
 *                                       * FUNCTION    SHELL    SCALE  *                                                           *
 *    ATOM   X-COORD  Y-COORD  Z-COORD   *  NUMBER     TYPE     FACTOR *  EXPONENT    S-COEF      P-COEF      D-COEF      F-COEF   *
 ***********************************************************************************************************************************
 *     H      0.00000  0.00000  0.70544                                                                                            *
+                                                1   S           1.00                                                               
+                                                                      0.340613D+020.255630D+000.000000D+000.000000D+000.000000D+00 
 *                                                                     0.512357D+010.461360D+000.000000D+000.000000D+000.000000D+00*
 *                                                                     0.116466D+010.681121D+000.000000D+000.000000D+000.000000D+00*
 *                                               2   S           1.00                                                              *
+                                                                      0.327230D+000.308355D+000.000000D+000.000000D+000.000000D+00 
 *                                               3   S           1.00                                                              *
+                                                                      0.103072D+000.129648D+000.000000D+000.000000D+000.000000D+00 
 *                                           4-  6   P           1.00                                                              *
+                                                                      0.800000D+000.000000D+000.107846D+010.000000D+000.000000D+00 
 *---------------------------------------------------------------------------------------------------------------------------------*
 *     H      0.00000  0.00000 -0.70544                                                                                            *
+                                                7   S           1.00                                                               
+                                                                      0.340613D+020.255630D+000.000000D+000.000000D+000.000000D+00 
 *                                                                     0.512357D+010.461360D+000.000000D+000.000000D+000.000000D+00*
 *                                                                     0.116466D+010.681121D+000.000000D+000.000000D+000.000000D+00*
 *                                               8   S           1.00                                                              *
+                                                                      0.327230D+000.308355D+000.000000D+000.000000D+000.000000D+00 
 *                                               9   S           1.00                                                              *
+                                                                      0.103072D+000.129648D+000.000000D+000.000000D+000.000000D+00 
 *                                          10- 12   P           1.00                                                              *
+                                                                      0.800000D+000.000000D+000.107846D+010.000000D+000.000000D+00 
 ***********************************************************************************************************************************
 There are     4 symmetry adapted cartesian basis functions of AG  symmetry.
 There are     0 symmetry adapted cartesian basis functions of B1G symmetry.
 There are     1 symmetry adapted cartesian basis functions of B2G symmetry.
 There are     1 symmetry adapted cartesian basis functions of B3G symmetry.
 There are     0 symmetry adapted cartesian basis functions of AU  symmetry.
 There are     4 symmetry adapted cartesian basis functions of B1U symmetry.
 There are     1 symmetry adapted cartesian basis functions of B2U symmetry.
 There are     1 symmetry adapted cartesian basis functions of B3U symmetry.
 There are     4 symmetry adapted basis functions of AG  symmetry.
 There are     0 symmetry adapted basis functions of B1G symmetry.
 There are     1 symmetry adapted basis functions of B2G symmetry.
 There are     1 symmetry adapted basis functions of B3G symmetry.
 There are     0 symmetry adapted basis functions of AU  symmetry.
 There are     4 symmetry adapted basis functions of B1U symmetry.
 There are     1 symmetry adapted basis functions of B2U symmetry.
 There are     1 symmetry adapted basis functions of B3U symmetry.
    12 basis functions,    16 primitive gaussians,    12 cartesian basis functions
     1 alpha electrons        1 beta electrons
       nuclear repulsion energy         0.7087730581 Hartrees.
 IExCor= 1009 DFT=T Ex+Corr=PBE1PBE ExCW=0 ScaHFX=  0.250000
 ScaDFX=  0.750000  0.750000  1.000000  1.000000 ScalE2=  1.000000  1.000000
 IRadAn=      5 IRanWt=     -1 IRanGd=            0 ICorTp=0 IEmpDi=141
 NAtoms=    2 NActive=    2 NUniq=    1 SFac= 4.00D+00 NAtFMM=   60 NAOKFM=F Big=F
 Integral buffers will be    131072 words long.
 Raffenetti 2 integral format.
 Two-electron integral symmetry is turned on.
 R6Disp:  Grimme-D3(BJ) Dispersion energy=       -0.0000690347 Hartrees.
 Nuclear repulsion after empirical dispersion term =        0.7087040234 Hartrees.
 Leave Link  301 at Sat Nov 15 13:14:05 2025, MaxMem=  1048576000 cpu:               0.2 elap:               0.1
 (Enter /home/pcmt/gaussian/g16.C.01/g16/l302.exe)
 NPDir=0 NMtPBC=     1 NCelOv=     1 NCel=       1 NClECP=     1 NCelD=      1
         NCelK=      1 NCelE2=     1 NClLst=     1 CellRange=     0.0.
 One-electron integrals computed using PRISM.
 One-electron integral symmetry used in STVInt
 NBasis=    12 RedAO= T EigKep=  1.86D-02  NBF=     4     0     1     1     0     4     1     1
 NBsUse=    12 1.00D-06 EigRej= -1.00D+00 NBFU=     4     0     1     1     0     4     1     1
 Precomputing XC quadrature grid using
 IXCGrd= 4 IRadAn=           5 IRanWt=          -1 IRanGd=           0 AccXCQ= 0.00D+00.
 Generated NRdTot=       0 NPtTot=           0 NUsed=           0 NTot=          32
 NSgBfM=    12    12    12    12    12 MxSgAt=     2 MxSgA2=     2.
 Leave Link  302 at Sat Nov 15 13:14:06 2025, MaxMem=  1048576000 cpu:               0.4 elap:               0.1
 (Enter /home/pcmt/gaussian/g16.C.01/g16/l303.exe)
 DipDrv:  MaxL=1.
 Leave Link  303 at Sat Nov 15 13:14:06 2025, MaxMem=  1048576000 cpu:               0.1 elap:               0.1
 (Enter /home/pcmt/gaussian/g16.C.01/g16/l401.exe)
 Initial guess from the checkpoint file:  "H2.pbe0-d3bj-gp.sp.chk"
 B after Tr=     0.000000    0.000000    0.000000
         Rot=    1.000000    0.000000    0.000000    0.000000 Ang=   0.00 deg.
 Guess basis will be translated and rotated to current coordinates.
 JPrj=2 DoOrth=T DoCkMO=T.
 Initial guess orbital symmetries:
       Occupied  (SGG)
       Virtual   (SGU) (SGG) (SGU) (PIU) (PIU) (SGG) (PIG) (PIG)
                 (SGU) (SGG) (SGU)
 The electronic state of the initial guess is 1-SGG.
 Leave Link  401 at Sat Nov 15 13:14:06 2025, MaxMem=  1048576000 cpu:               0.3 elap:               0.1
 (Enter /home/pcmt/gaussian/g16.C.01/g16/l502.exe)
 Keep R1 ints in memory in symmetry-blocked form, NReq=3454533.
 FoFCou: FMM=F IPFlag=           0 FMFlag=           0 FMFlg1=           0
         NFxFlg=           0 DoJE=F BraDBF=F KetDBF=F FulRan=T
         wScrn=  0.000000 ICntrl=       600 IOpCl=  0 I1Cent=           0 NGrid=           0
         NMat0=    1 NMatS0=     78 NMatT0=    0 NMatD0=    1 NMtDS0=    0 NMtDT0=    0
 Petite list used in FoFCou.
 Closed shell SCF:
 Using DIIS extrapolation, IDIIS=  1040.
 NGot=  1048576000 LenX=  1048572913 LenY=  1048572031
 Requested convergence on RMS density matrix=1.00D-08 within 200 cycles.
 Requested convergence on MAX density matrix=1.00D-06.
 Requested convergence on             energy=1.00D-06.
 No special actions if energy rises.

 Cycle   1  Pass 1  IDiag  1:
 E= -1.16827626282083    
 DIIS: error= 5.91D-04 at cycle   1 NSaved=   1.
 NSaved= 1 IEnMin= 1 EnMin= -1.16827626282083     IErMin= 1 ErrMin= 5.91D-04
 ErrMax= 5.91D-04  0.00D+00 EMaxC= 1.00D-01 BMatC= 2.57D-06 BMatP= 2.57D-06
 IDIUse=3 WtCom= 9.94D-01 WtEn= 5.91D-03
 Coeff-Com:  0.100D+01
 Coeff-En:   0.100D+01
 Coeff:      0.100D+01
 Gap=     0.512 Goal=   None    Shift=    0.000
 RMSDP=4.53D-05 MaxDP=1.34D-04              OVMax= 5.62D-04

 Cycle   2  Pass 1  IDiag  1:
 E= -1.16827847706335     Delta-E=       -0.000002214243 Rises=F Damp=F
 DIIS: error= 4.27D-05 at cycle   2 NSaved=   2.
 NSaved= 2 IEnMin= 2 EnMin= -1.16827847706335     IErMin= 2 ErrMin= 4.27D-05
 ErrMax= 4.27D-05  0.00D+00 EMaxC= 1.00D-01 BMatC= 8.03D-09 BMatP= 2.57D-06
 IDIUse=1 WtCom= 1.00D+00 WtEn= 0.00D+00
 Coeff-Com: -0.367D-01 0.104D+01
 Coeff:     -0.367D-01 0.104D+01
 Gap=     0.512 Goal=   None    Shift=    0.000
 RMSDP=7.07D-06 MaxDP=2.05D-05 DE=-2.21D-06 OVMax= 8.12D-05

 Cycle   3  Pass 1  IDiag  1:
 E= -1.16827848815745     Delta-E=       -0.000000011094 Rises=F Damp=F
 DIIS: error= 5.72D-06 at cycle   3 NSaved=   3.
 NSaved= 3 IEnMin= 3 EnMin= -1.16827848815745     IErMin= 3 ErrMin= 5.72D-06
 ErrMax= 5.72D-06  0.00D+00 EMaxC= 1.00D-01 BMatC= 1.50D-10 BMatP= 8.03D-09
 IDIUse=1 WtCom= 1.00D+00 WtEn= 0.00D+00
 Coeff-Com: -0.807D-02 0.140D+00 0.868D+00
 Coeff:     -0.807D-02 0.140D+00 0.868D+00
 Gap=     0.512 Goal=   None    Shift=    0.000
 RMSDP=6.25D-07 MaxDP=1.57D-06 DE=-1.11D-08 OVMax= 9.84D-06

 Cycle   4  Pass 1  IDiag  1:
 E= -1.16827848836838     Delta-E=       -0.000000000211 Rises=F Damp=F
 DIIS: error= 1.22D-07 at cycle   4 NSaved=   4.
 NSaved= 4 IEnMin= 4 EnMin= -1.16827848836838     IErMin= 4 ErrMin= 1.22D-07
 ErrMax= 1.22D-07  0.00D+00 EMaxC= 1.00D-01 BMatC= 1.11D-13 BMatP= 1.50D-10
 IDIUse=1 WtCom= 1.00D+00 WtEn= 0.00D+00
 Coeff-Com:  0.634D-03-0.107D-01-0.902D-01 0.110D+01
 Coeff:      0.634D-03-0.107D-01-0.902D-01 0.110D+01
 Gap=     0.512 Goal=   None    Shift=    0.000
 RMSDP=1.72D-08 MaxDP=7.94D-08 DE=-2.11D-10 OVMax= 1.40D-07

 Cycle   5  Pass 1  IDiag  1:
 E= -1.16827848836848     Delta-E=       -0.000000000000 Rises=F Damp=F
 DIIS: error= 2.13D-11 at cycle   5 NSaved=   5.
 NSaved= 5 IEnMin= 5 EnMin= -1.16827848836848     IErMin= 5 ErrMin= 2.13D-11
 ErrMax= 2.13D-11  0.00D+00 EMaxC= 1.00D-01 BMatC= 1.93D-21 BMatP= 1.11D-13
 IDIUse=1 WtCom= 1.00D+00 WtEn= 0.00D+00
 Coeff-Com: -0.228D-08-0.435D-06 0.200D-05-0.121D-03 0.100D+01
 Coeff:     -0.228D-08-0.435D-06 0.200D-05-0.121D-03 0.100D+01
 Gap=     0.512 Goal=   None    Shift=    0.000
 RMSDP=5.02D-12 MaxDP=2.04D-11 DE=-1.01D-13 OVMax= 4.77D-11

 SCF Done:  E(RPBE1PBE) =  -1.16827848837     A.U. after    5 cycles
            NFock=  5  Conv=0.50D-11     -V/T= 2.0342
 KE= 1.129625065623D+00 PE=-3.626801689818D+00 EE= 6.201941124223D-01
 Leave Link  502 at Sat Nov 15 13:14:06 2025, MaxMem=  1048576000 cpu:               0.5 elap:               0.2
 (Enter /home/pcmt/gaussian/g16.C.01/g16/l601.exe)
 Copying SCF densities to generalized density rwf, IOpCl= 0 IROHF=0.

 **********************************************************************

            Population analysis using the SCF Density.

 **********************************************************************

 Orbital symmetries:
       Occupied  (SGG)
       Virtual   (SGU) (SGG) (SGU) (PIU) (PIU) (SGG) (PIG) (PIG)
                 (SGU) (SGG) (SGU)
 The electronic state is 1-SGG.
 Alpha  occ. eigenvalues --   -0.43993
 Alpha virt. eigenvalues --    0.07228   0.21398   0.48701   1.17698   1.17698
 Alpha virt. eigenvalues --    1.63763   1.95467   1.95467   2.03420   2.44974
 Alpha virt. eigenvalues --    3.44811
     Molecular Orbital Coefficients:
                           1         2         3         4         5
                       (SGG)--O  (SGU)--V  (SGG)--V  (SGU)--V  (PIU)--V
     Eigenvalues --    -0.43993   0.07228   0.21398   0.48701   1.17698
   1 1   H  1S          0.19150   0.09063  -0.07161  -0.12573   0.00000
   2        2S          0.28146   0.03989  -0.68592  -1.83714   0.00000
   3        3S          0.13833   2.05762   0.83482   2.43403   0.00000
   4        4PX         0.00000   0.00000   0.00000   0.00000   0.58701
   5        4PY         0.00000   0.00000   0.00000   0.00000   0.00000
   6        4PZ        -0.01890   0.05351   0.00961   0.10842   0.00000
   7 2   H  1S          0.19150  -0.09063  -0.07161   0.12573   0.00000
   8        2S          0.28146  -0.03989  -0.68592   1.83714   0.00000
   9        3S          0.13833  -2.05762   0.83482  -2.43403   0.00000
  10        4PX         0.00000   0.00000   0.00000   0.00000   0.58701
  11        4PY         0.00000   0.00000   0.00000   0.00000   0.00000
  12        4PZ         0.01890   0.05351  -0.00961   0.10842   0.00000
                           6         7         8         9        10
                       (PIU)--V  (SGG)--V  (PIG)--V  (PIG)--V  (SGU)--V
     Eigenvalues --     1.17698   1.63763   1.95467   1.95467   2.03420
   1 1   H  1S          0.00000  -0.36711   0.00000   0.00000  -0.67404
   2        2S          0.00000   0.76477   0.00000   0.00000   3.17170
   3        3S          0.00000  -0.37947   0.00000   0.00000  -1.60921
   4        4PX         0.00000   0.00000   0.00000   0.95435   0.00000
   5        4PY         0.58701   0.00000   0.95435   0.00000   0.00000
   6        4PZ         0.00000   0.56734   0.00000   0.00000  -1.17342
   7 2   H  1S          0.00000  -0.36711   0.00000   0.00000   0.67404
   8        2S          0.00000   0.76477   0.00000   0.00000  -3.17170
   9        3S          0.00000  -0.37947   0.00000   0.00000   1.60921
  10        4PX         0.00000   0.00000   0.00000  -0.95435   0.00000
  11        4PY         0.58701   0.00000  -0.95435   0.00000   0.00000
  12        4PZ         0.00000  -0.56734   0.00000   0.00000  -1.17342
                          11        12
                       (SGG)--V  (SGU)--V
     Eigenvalues --     2.44974   3.44811
   1 1   H  1S          1.07355  -1.03449
   2        2S         -0.97413  -1.61092
   3        3S          0.34781   0.28612
   4        4PX         0.00000   0.00000
   5        4PY         0.00000   0.00000
   6        4PZ         0.41407   1.85151
   7 2   H  1S          1.07355   1.03449
   8        2S         -0.97413   1.61092
   9        3S          0.34781  -0.28612
  10        4PX         0.00000   0.00000
  11        4PY         0.00000   0.00000
  12        4PZ        -0.41407   1.85151
          Condensed to atoms (all electrons):
               1          2
     1  H    0.585407   0.414593
     2  H    0.414593   0.585407
 Mulliken charges:
               1
     1  H   -0.000000
     2  H   -0.000000
 Sum of Mulliken charges =  -0.00000
 Mulliken charges with hydrogens summed into heavy atoms:
               1
 Electronic spatial extent (au):  <R**2>=              5.2364
 Charge=             -0.0000 electrons
 Dipole moment (field-independent basis, Debye):
    X=             -0.0000    Y=              0.0000    Z=             -0.0000  Tot=              0.0000
 Quadrupole moment (field-independent basis, Debye-Ang):
   XX=             -2.0879   YY=             -2.0879   ZZ=             -1.5287
   XY=             -0.0000   XZ=             -0.0000   YZ=              0.0000
 Traceless Quadrupole moment (field-independent basis, Debye-Ang):
   XX=             -0.1864   YY=             -0.1864   ZZ=              0.3728
   XY=             -0.0000   XZ=             -0.0000   YZ=              0.0000
 Octapole moment (field-independent basis, Debye-Ang**2):
  XXX=             -0.0000  YYY=              0.0000  ZZZ=              0.0000  XYY=             -0.0000
  XXY=             -0.0000  XXZ=              0.0000  XZZ=             -0.0000  YZZ=             -0.0000
  YYZ=              0.0000  XYZ=              0.0000
 Hexadecapole moment (field-independent basis, Debye-Ang**3):
 XXXX=             -2.1170 YYYY=             -2.1170 ZZZZ=             -3.0166 XXXY=             -0.0000
 XXXZ=              0.0000 YYYX=             -0.0000 YYYZ=              0.0000 ZZZX=              0.0000
 ZZZY=              0.0000 XXYY=             -0.7057 XXZZ=             -0.8721 YYZZ=             -0.8721
 XXYZ=              0.0000 YYXZ=              0.0000 ZZXY=             -0.0000
 N-N= 7.087040234044D-01 E-N=-3.626801689839D+00  KE= 1.129625065623D+00
 Symmetry AG   KE= 1.129625065623D+00
 Symmetry B1G  KE= 0.000000000000D+00
 Symmetry B2G  KE= 2.887945977824D-34
 Symmetry B3G  KE= 2.887945977824D-34
 Symmetry AU   KE= 0.000000000000D+00
 Symmetry B1U  KE= 8.185338367310D-33
 Symmetry B2U  KE= 6.346330433672D-35
 Symmetry B3U  KE= 6.346330433672D-35
 Orbital energies and kinetic energies (alpha):
                                 1                 2
   1         (SGG)--O         -0.439935          0.564813
   2         (SGU)--V          0.072279          0.334986
   3         (SGG)--V          0.213981          0.511269
   4         (SGU)--V          0.487010          1.038393
   5         (PIU)--V          1.176978          1.802003
   6         (PIU)--V          1.176978          1.802003
   7         (SGG)--V          1.637627          2.436767
   8         (PIG)--V          1.954673          2.523330
   9         (PIG)--V          1.954673          2.523330
  10         (SGU)--V          2.034202          3.079360
  11         (SGG)--V          2.449739          3.777316
  12         (SGU)--V          3.448108          4.752881
 Total kinetic energy from orbitals= 1.129625065623D+00
 No NMR shielding tensors so no spin-rotation constants.
 Leave Link  601 at Sat Nov 15 13:14:06 2025, MaxMem=  1048576000 cpu:               0.3 elap:               0.1
 (Enter /home/pcmt/gaussian/g16.C.01/g16/l9999.exe)

 Test job not archived.
 1\1\GINC-U-0-13\SP\RPBE1PBE\Gen\H2\VALLET\15-Nov-2025\0\\#p PBE1PBE/GE
 N GFInput GFOldPrint 5D 7F IOP(4/69=2, 6/7=3) EmpiricalDispersion=GD3B
 J Scf=(NoVarAcc,MaxCycle=200,conver=8) Integral=(Grid=UltraFine) Guess
 =CheckPoint Geom=CheckPoint Symm=Loose\\HClO4.pbe0-d3bj-cosmo.optg-fre
 q.chk\\0,1\H,0,0.,0.,0.6266948885\H,0,0.,0.,1.3733051115\\Version=ES64
 L-G16RevC.01\State=1-SGG\HF=-1.1682785\RMSD=5.019e-12\Dipole=0.,0.,0.\
 Quadrupole=-0.1385896,-0.1385896,0.2771793,0.,0.,0.\PG=D*H [C*(H1.H1)]
 \\@


 Until you make peace with who you are,
 you'll never be content with what you have.
                           -- Doris Mortman
 Job cpu time:       0 days  0 hours  0 minutes  3.5 seconds.
 Elapsed time:       0 days  0 hours  0 minutes  1.1 seconds.
 File lengths (MBytes):  RWF=      6 Int=      0 D2E=      0 Chk=      2 Scr=      1
 Normal termination of Gaussian 16 at Sat Nov 15 13:14:06 2025.
