 Entering Gaussian System, Link 0=/home/pcmt/gaussian/g16.C.01/g16/g16
 Initial command:
 /home/pcmt/gaussian/g16.C.01/g16/l1.exe "/state/partition2/vallet/1061527.phlam-s-sakura/Gau-156022.inp" -scrdir="/state/partition2/vallet/1061527.phlam-s-sakura/"
 Entering Link 1 = /home/pcmt/gaussian/g16.C.01/g16/l1.exe PID=    156023.
  
 Copyright (c) 1988-2019, Gaussian, Inc.  All Rights Reserved.
  
 This is part of the Gaussian(R) 16 program.  It is based on
 the Gaussian(R) 09 system (copyright 2009, Gaussian, Inc.),
 the Gaussian(R) 03 system (copyright 2003, Gaussian, Inc.),
 the Gaussian(R) 98 system (copyright 1998, Gaussian, Inc.),
 the Gaussian(R) 94 system (copyright 1995, Gaussian, Inc.),
 the Gaussian 92(TM) system (copyright 1992, Gaussian, Inc.),
 the Gaussian 90(TM) system (copyright 1990, Gaussian, Inc.),
 the Gaussian 88(TM) system (copyright 1988, Gaussian, Inc.),
 the Gaussian 86(TM) system (copyright 1986, Carnegie Mellon
 University), and the Gaussian 82(TM) system (copyright 1983,
 Carnegie Mellon University). Gaussian is a federally registered
 trademark of Gaussian, Inc.
  
 This software contains proprietary and confidential information,
 including trade secrets, belonging to Gaussian, Inc.
  
 This software is provided under written license and may be
 used, copied, transmitted, or stored only in accord with that
 written license.
  
 The following legend is applicable only to US Government
 contracts under FAR:
  
                    RESTRICTED RIGHTS LEGEND
  
 Use, reproduction and disclosure by the US Government is
 subject to restrictions as set forth in subparagraphs (a)
 and (c) of the Commercial Computer Software - Restricted
 Rights clause in FAR 52.227-19.
  
 Gaussian, Inc.
 340 Quinnipiac St., Bldg. 40, Wallingford CT 06492
  
  
 ---------------------------------------------------------------
 Warning -- This program may not be used in any manner that
 competes with the business of Gaussian, Inc. or will provide
 assistance to any competitor of Gaussian, Inc.  The licensee
 of this program is prohibited from giving any competitor of
 Gaussian, Inc. access to this program.  By using this program,
 the user acknowledges that Gaussian, Inc. is engaged in the
 business of creating and licensing software in the field of
 computational chemistry and represents and warrants to the
 licensee that it is not a competitor of Gaussian, Inc. and that
 it will not use this program in any manner prohibited above.
 ---------------------------------------------------------------
  

 Cite this work as:
 Gaussian 16, Revision C.01,
 M. J. Frisch, G. W. Trucks, H. B. Schlegel, G. E. Scuseria, 
 M. A. Robb, J. R. Cheeseman, G. Scalmani, V. Barone, 
 G. A. Petersson, H. Nakatsuji, X. Li, M. Caricato, A. V. Marenich, 
 J. Bloino, B. G. Janesko, R. Gomperts, B. Mennucci, H. P. Hratchian, 
 J. V. Ortiz, A. F. Izmaylov, J. L. Sonnenberg, D. Williams-Young, 
 F. Ding, F. Lipparini, F. Egidi, J. Goings, B. Peng, A. Petrone, 
 T. Henderson, D. Ranasinghe, V. G. Zakrzewski, J. Gao, N. Rega, 
 G. Zheng, W. Liang, M. Hada, M. Ehara, K. Toyota, R. Fukuda, 
 J. Hasegawa, M. Ishida, T. Nakajima, Y. Honda, O. Kitao, H. Nakai, 
 T. Vreven, K. Throssell, J. A. Montgomery, Jr., J. E. Peralta, 
 F. Ogliaro, M. J. Bearpark, J. J. Heyd, E. N. Brothers, K. N. Kudin, 
 V. N. Staroverov, T. A. Keith, R. Kobayashi, J. Normand, 
 K. Raghavachari, A. P. Rendell, J. C. Burant, S. S. Iyengar, 
 J. Tomasi, M. Cossi, J. M. Millam, M. Klene, C. Adamo, R. Cammi, 
 J. W. Ochterski, R. L. Martin, K. Morokuma, O. Farkas, 
 J. B. Foresman, and D. J. Fox, Gaussian, Inc., Wallingford CT, 2019.
 
 ******************************************
 Gaussian 16:  ES64L-G16RevC.01  3-Jul-2019
                28-Oct-2025 
 ******************************************
 %mem=16000Mb
 %NProc=8
 Will use up to    8 processors via shared memory.
 %chk=H2.pbe0-d3bj-cosmo.optg-freq.chk
 ----------------------------------------------------------------------
 #p PBE1PBE/GEN GFInput GFOldPrint 5D 7F IOP(4/69=2, 6/7=3) EmpiricalDi
 spersion=GD3BJ Scf=(NoVarAcc,MaxCycle=200,conver=8) Integral=(Grid=Ult
 raFine) Guess=Harris Symm=Loose Opt Freq=(Raman, InternalModes) SCRF=(
 COSMO, Solvent=Water, Read)
 ----------------------------------------------------------------------
 1/18=20,19=15,26=6,38=1,40=2/1,3;
 2/9=110,12=2,17=4,18=3,40=1/2;
 3/5=7,8=11,11=2,24=11,25=1,30=1,70=22103,71=1,72=1,74=-13,75=-5,124=41/1,2,3;
 4/11=8,69=2/1;
 5/5=2,6=8,7=200,38=1,53=1/2;
 6/7=3,8=2,9=2,10=2,28=1/1;
 7//1,2,3,16;
 1/18=20,19=15,26=6/3(2);
 2/9=110/2;
 99//99;
 2/9=110/2;
 3/5=7,6=1,8=11,11=2,25=1,30=1,70=22105,71=1,72=1,74=-13,75=-5,82=7,124=41/1,2,3;
 4/5=5,11=8,16=3,69=2/1;
 5/5=2,6=8,7=200,38=1,53=1/2;
 7//1,2,3,16;
 1/18=20,19=15,26=6/3(-5);
 2/9=110/2;
 6/7=3,8=2,9=2,10=2,19=2,28=1/1;
 99/9=1/99;
 Leave Link    1 at Tue Oct 28 15:58:45 2025, MaxMem=  2097152000 cpu:               1.1 elap:               0.1
 (Enter /home/pcmt/gaussian/g16.C.01/g16/l101.exe)
 -----------------------------------
 HClO4.pbe0-d3bj-cosmo.optg-freq.chk
 -----------------------------------
 Symbolic Z-matrix:
 Charge =  0 Multiplicity = 1
 H                     0.        0.        0. 
 H                     0.        0.        2. 
 
 Add virtual bond connecting atoms H2         and H1         Dist= 3.78D+00.
 ITRead=  0  0
 MicOpt= -1 -1
 NAtoms=      2 NQM=        2 NQMF=       0 NMMI=      0 NMMIF=      0
                NMic=       0 NMicF=      0.
                    Isotopes and Nuclear Properties:
 (Nuclear quadrupole moments (NQMom) in fm**2, nuclear magnetic moments (NMagM)
  in nuclear magnetons)

  Atom         1           2
 IAtWgt=           1           1
 AtmWgt=   1.0078250   1.0078250
 NucSpn=           1           1
 AtZEff=  -0.0000000  -0.0000000
 NQMom=    0.0000000   0.0000000
 NMagM=    2.7928460   2.7928460
 AtZNuc=   1.0000000   1.0000000
 Leave Link  101 at Tue Oct 28 15:58:46 2025, MaxMem=  2097152000 cpu:               2.2 elap:               1.2
 (Enter /home/pcmt/gaussian/g16.C.01/g16/l103.exe)

 GradGradGradGradGradGradGradGradGradGradGradGradGradGradGradGradGradGrad
 Berny optimization.
 Initialization pass.
                           ----------------------------
                           !    Initial Parameters    !
                           ! (Angstroms and Degrees)  !
 --------------------------                            --------------------------
 ! Name  Definition              Value          Derivative Info.                !
 --------------------------------------------------------------------------------
 ! R1    R(1,2)                  2.0            estimate D2E/DX2                !
 --------------------------------------------------------------------------------
 Trust Radius=3.00D-01 FncErr=5.00D-06 GrdErr=5.00D-06 EigMax=2.50D+02 EigMin=1.00D-04
 Number of steps in this run=     20 maximum allowed number of steps=    100.
 GradGradGradGradGradGradGradGradGradGradGradGradGradGradGradGradGradGrad

 Leave Link  103 at Tue Oct 28 15:58:47 2025, MaxMem=  2097152000 cpu:               0.2 elap:               0.2
 (Enter /home/pcmt/gaussian/g16.C.01/g16/l202.exe)
                          Input orientation:                          
 ---------------------------------------------------------------------
 Center     Atomic      Atomic             Coordinates (Angstroms)
 Number     Number       Type             X           Y           Z
 ---------------------------------------------------------------------
      1          1           0        0.000000    0.000000    0.000000
      2          1           0        0.000000    0.000000    2.000000
 ---------------------------------------------------------------------
 Stoichiometry    H2
 Framework group  D*H[C*(H.H)]
 Deg. of freedom     1
 Full point group                 D*H     NOp   8
 Largest Abelian subgroup         D2H     NOp   8
 Largest concise Abelian subgroup C2      NOp   2
                         Standard orientation:                         
 ---------------------------------------------------------------------
 Center     Atomic      Atomic             Coordinates (Angstroms)
 Number     Number       Type             X           Y           Z
 ---------------------------------------------------------------------
      1          1           0        0.000000    0.000000    1.000000
      2          1           0        0.000000    0.000000   -1.000000
 ---------------------------------------------------------------------
 Rotational constants (GHZ):           0.0000000         250.7275522         250.7275522
 Leave Link  202 at Tue Oct 28 15:58:47 2025, MaxMem=  2097152000 cpu:               0.3 elap:               0.2
 (Enter /home/pcmt/gaussian/g16.C.01/g16/l301.exe)
 General basis read from cards:  (5D, 7F)
 Centers:       1      2
 Def2TZVP
 ****
 Ernie: Thresh=  0.10000D-02 Tol=  0.10000D-05 Strict=F.
 AO basis set in the form of general basis input (Overlap normalization):
      1 0
 S   3 1.00       0.000000000000
      0.3406134100D+02  0.2543930721D-01
      0.5123574600D+01  0.1900859489D+00
      0.1164662600D+01  0.8524411301D+00
 S   1 1.00       0.000000000000
      0.3272304100D+00  0.1000000000D+01
 S   1 1.00       0.000000000000
      0.1030724100D+00  0.1000000000D+01
 P   1 1.00       0.000000000000
      0.8000000000D+00  0.1000000000D+01
 ****
      2 0
 S   3 1.00       0.000000000000
      0.3406134100D+02  0.2543930721D-01
      0.5123574600D+01  0.1900859489D+00
      0.1164662600D+01  0.8524411301D+00
 S   1 1.00       0.000000000000
      0.3272304100D+00  0.1000000000D+01
 S   1 1.00       0.000000000000
      0.1030724100D+00  0.1000000000D+01
 P   1 1.00       0.000000000000
      0.8000000000D+00  0.1000000000D+01
 ****

 ***********************************************************************************************************************************
 *             ATOMIC CENTER             *        ATOMIC ORBITAL       *                     GAUSSIAN FUNCTIONS                    *
 ***********************************************************************************************************************************
 *                                       * FUNCTION    SHELL    SCALE  *                                                           *
 *    ATOM   X-COORD  Y-COORD  Z-COORD   *  NUMBER     TYPE     FACTOR *  EXPONENT    S-COEF      P-COEF      D-COEF      F-COEF   *
 ***********************************************************************************************************************************
 *     H      0.00000  0.00000  1.88973                                                                                            *
+                                                1   S           1.00                                                               
+                                                                      0.340613D+020.255630D+000.000000D+000.000000D+000.000000D+00 
 *                                                                     0.512357D+010.461360D+000.000000D+000.000000D+000.000000D+00*
 *                                                                     0.116466D+010.681121D+000.000000D+000.000000D+000.000000D+00*
 *                                               2   S           1.00                                                              *
+                                                                      0.327230D+000.308355D+000.000000D+000.000000D+000.000000D+00 
 *                                               3   S           1.00                                                              *
+                                                                      0.103072D+000.129648D+000.000000D+000.000000D+000.000000D+00 
 *                                           4-  6   P           1.00                                                              *
+                                                                      0.800000D+000.000000D+000.107846D+010.000000D+000.000000D+00 
 *---------------------------------------------------------------------------------------------------------------------------------*
 *     H      0.00000  0.00000 -1.88973                                                                                            *
+                                                7   S           1.00                                                               
+                                                                      0.340613D+020.255630D+000.000000D+000.000000D+000.000000D+00 
 *                                                                     0.512357D+010.461360D+000.000000D+000.000000D+000.000000D+00*
 *                                                                     0.116466D+010.681121D+000.000000D+000.000000D+000.000000D+00*
 *                                               8   S           1.00                                                              *
+                                                                      0.327230D+000.308355D+000.000000D+000.000000D+000.000000D+00 
 *                                               9   S           1.00                                                              *
+                                                                      0.103072D+000.129648D+000.000000D+000.000000D+000.000000D+00 
 *                                          10- 12   P           1.00                                                              *
+                                                                      0.800000D+000.000000D+000.107846D+010.000000D+000.000000D+00 
 ***********************************************************************************************************************************
 There are     4 symmetry adapted cartesian basis functions of AG  symmetry.
 There are     0 symmetry adapted cartesian basis functions of B1G symmetry.
 There are     1 symmetry adapted cartesian basis functions of B2G symmetry.
 There are     1 symmetry adapted cartesian basis functions of B3G symmetry.
 There are     0 symmetry adapted cartesian basis functions of AU  symmetry.
 There are     4 symmetry adapted cartesian basis functions of B1U symmetry.
 There are     1 symmetry adapted cartesian basis functions of B2U symmetry.
 There are     1 symmetry adapted cartesian basis functions of B3U symmetry.
 There are     4 symmetry adapted basis functions of AG  symmetry.
 There are     0 symmetry adapted basis functions of B1G symmetry.
 There are     1 symmetry adapted basis functions of B2G symmetry.
 There are     1 symmetry adapted basis functions of B3G symmetry.
 There are     0 symmetry adapted basis functions of AU  symmetry.
 There are     4 symmetry adapted basis functions of B1U symmetry.
 There are     1 symmetry adapted basis functions of B2U symmetry.
 There are     1 symmetry adapted basis functions of B3U symmetry.
    12 basis functions,    16 primitive gaussians,    12 cartesian basis functions
     1 alpha electrons        1 beta electrons
       nuclear repulsion energy         0.2645886055 Hartrees.
 IExCor= 1009 DFT=T Ex+Corr=PBE1PBE ExCW=0 ScaHFX=  0.250000
 ScaDFX=  0.750000  0.750000  1.000000  1.000000 ScalE2=  1.000000  1.000000
 IRadAn=      5 IRanWt=     -1 IRanGd=            0 ICorTp=0 IEmpDi=141
 NAtoms=    2 NActive=    2 NUniq=    1 SFac= 4.00D+00 NAtFMM=   60 NAOKFM=F Big=F
 Integral buffers will be    131072 words long.
 Raffenetti 2 integral format.
 Two-electron integral symmetry is turned on.
 R6Disp:  Grimme-D3(BJ) Dispersion energy=       -0.0001560740 Hartrees.
 Nuclear repulsion after empirical dispersion term =        0.2644325315 Hartrees.
 Using the following non-standard input for PCM:
 Radii=Klamt
 --- end of non-standard input.
 ------------------------------------------------------------------------------
 Polarizable Continuum Model (PCM)
 =================================
 Model                : C-PCM.
 Atomic radii         : Klamt.
 Polarization charges : Total charges.
 Charge compensation  : None.
 Solution method      : On-the-fly selection.
 Cavity type          : Scaled VdW (van der Waals Surface) (Alpha=1.100).
 Cavity algorithm     : GePol (No added spheres)
                        Default sphere list used, NSphG=    2.
                        Lebedev-Laikov grids with approx.  5.0 points / Ang**2.
                        Smoothing algorithm: York/Karplus (Gamma=1.0000).
                        Polarization charges: spherical gaussians, with
                                              point-specific exponents (IZeta= 3).
                        Self-potential: point-specific (ISelfS= 7).
                        Self-field    : sphere-specific E.n sum rule (ISelfD= 2).
 1st derivatives      : Analytical E(r).r(x)/FMM algorithm (CHGder, D1EAlg=3).
                        Cavity 1st derivative terms included.
 Solvent              : Water, Eps=  78.355300 Eps(inf)=   1.777849
 ------------------------------------------------------------------------------
 Spheres list:
 ISph  on   Nord     Re0    Alpha      Xe            Ye            Ze
    1   H      1    1.3000  1.000      0.000000      0.000000      1.000000
    2   H      2    1.3000  1.000      0.000000      0.000000     -1.000000
 ------------------------------------------------------------------------------
 GePol: Number of generator spheres                  =       2
 GePol: Total number of spheres                      =       2
 GePol: Number of exposed spheres                    =       2 (100.00%)
 GePol: Number of points                             =     202
 GePol: Average weight of points                     =       0.19
 GePol: Minimum weight of points                     =   0.14D-02
 GePol: Maximum weight of points                     =    0.21116
 GePol: Number of points with low weight             =       8
 GePol: Fraction of low-weight points (<1% of avg)   =       3.96%
 GePol: Cavity surface area                          =     37.650 Ang**2
 GePol: Cavity volume                                =     17.748 Ang**3
 Leave Link  301 at Tue Oct 28 15:58:47 2025, MaxMem=  2097152000 cpu:               1.2 elap:               0.4
 (Enter /home/pcmt/gaussian/g16.C.01/g16/l302.exe)
 NPDir=0 NMtPBC=     1 NCelOv=     1 NCel=       1 NClECP=     1 NCelD=      1
         NCelK=      1 NCelE2=     1 NClLst=     1 CellRange=     0.0.
 One-electron integrals computed using PRISM.
 One-electron integral symmetry used in STVInt
 NBasis=    12 RedAO= T EigKep=  8.64D-02  NBF=     4     0     1     1     0     4     1     1
 NBsUse=    12 1.00D-06 EigRej= -1.00D+00 NBFU=     4     0     1     1     0     4     1     1
 Precomputing XC quadrature grid using
 IXCGrd= 4 IRadAn=           5 IRanWt=          -1 IRanGd=           0 AccXCQ= 0.00D+00.
 Generated NRdTot=       0 NPtTot=           0 NUsed=           0 NTot=          32
 NSgBfM=    12    12    12    12    12 MxSgAt=     2 MxSgA2=     2.
 Leave Link  302 at Tue Oct 28 15:58:48 2025, MaxMem=  2097152000 cpu:               1.5 elap:               0.4
 (Enter /home/pcmt/gaussian/g16.C.01/g16/l303.exe)
 DipDrv:  MaxL=1.
 Leave Link  303 at Tue Oct 28 15:58:48 2025, MaxMem=  2097152000 cpu:               1.0 elap:               0.3
 (Enter /home/pcmt/gaussian/g16.C.01/g16/l401.exe)
 ExpMin= 1.03D-01 ExpMax= 3.41D+01 ExpMxC= 3.41D+01 IAcc=3 IRadAn=         5 AccDes= 0.00D+00
 Harris functional with IExCor= 1009 and IRadAn=       5 diagonalized for initial guess.
 HarFok:  IExCor= 1009 AccDes= 0.00D+00 IRadAn=         5 IDoV= 1 UseB2=F ITyADJ=14
 ICtDFT=  3500011 ScaDFX=  1.000000  1.000000  1.000000  1.000000
 FoFCou: FMM=F IPFlag=           0 FMFlag=      100000 FMFlg1=           0
         NFxFlg=           0 DoJE=T BraDBF=F KetDBF=T FulRan=T
         wScrn=  0.000000 ICntrl=       500 IOpCl=  0 I1Cent=   200000004 NGrid=           0
         NMat0=    1 NMatS0=      1 NMatT0=    0 NMatD0=    1 NMtDS0=    0 NMtDT0=    0
 Petite list used in FoFCou.
 Harris En=-0.998431318546913    
 JPrj=0 DoOrth=F DoCkMO=F.
 Initial guess orbital symmetries:
       Occupied  (SGG)
       Virtual   (SGU) (SGG) (SGU) (SGG) (PIU) (PIU) (PIG) (PIG)
                 (SGU) (SGG) (SGU)
 The electronic state of the initial guess is 1-SGG.
 Leave Link  401 at Tue Oct 28 15:58:48 2025, MaxMem=  2097152000 cpu:               2.1 elap:               0.5
 (Enter /home/pcmt/gaussian/g16.C.01/g16/l502.exe)
 Keep R1 ints in memory in symmetry-blocked form, NReq=6904681.
 FoFCou: FMM=F IPFlag=           0 FMFlag=           0 FMFlg1=           0
         NFxFlg=           0 DoJE=F BraDBF=F KetDBF=F FulRan=T
         wScrn=  0.000000 ICntrl=       600 IOpCl=  0 I1Cent=           0 NGrid=           0
         NMat0=    1 NMatS0=     78 NMatT0=    0 NMatD0=    1 NMtDS0=    0 NMtDT0=    0
 Petite list used in FoFCou.
 Closed shell SCF:
 Using DIIS extrapolation, IDIIS=  1040.
 NGot=  2097152000 LenX=  2097148871 LenY=  2097147989
 Requested convergence on RMS density matrix=1.00D-08 within 200 cycles.
 Requested convergence on MAX density matrix=1.00D-06.
 Requested convergence on             energy=1.00D-06.
 No special actions if energy rises.

 Cycle   1  Pass 1  IDiag  1:
 Inv3:  Mode=1 IEnd=      122412.
 Iteration    1 A*A^-1 deviation from unit magnitude is 2.00D-15 for     12.
 Iteration    1 A*A^-1 deviation from orthogonality  is 7.45D-16 for     80     12.
 Iteration    1 A^-1*A deviation from unit magnitude is 1.78D-15 for     12.
 Iteration    1 A^-1*A deviation from orthogonality  is 4.66D-16 for    168    124.
 E=-0.987847745179663    
 DIIS: error= 5.54D-03 at cycle   1 NSaved=   1.
 NSaved= 1 IEnMin= 1 EnMin=-0.987847745179663     IErMin= 1 ErrMin= 5.54D-03
 ErrMax= 5.54D-03  0.00D+00 EMaxC= 1.00D-01 BMatC= 2.12D-04 BMatP= 2.12D-04
 IDIUse=3 WtCom= 9.45D-01 WtEn= 5.54D-02
 Coeff-Com:  0.100D+01
 Coeff-En:   0.100D+01
 Coeff:      0.100D+01
 Gap=     0.161 Goal=   None    Shift=    0.000
 GapD=    0.161 DampG=1.000 DampE=1.000 DampFc=1.0000 IDamp=-1.
 RMSDP=9.70D-04 MaxDP=3.68D-03              OVMax= 1.04D-02

 Cycle   2  Pass 1  IDiag  1:
 E=-0.988122166959209     Delta-E=       -0.000274421780 Rises=F Damp=F
 DIIS: error= 2.08D-04 at cycle   2 NSaved=   2.
 NSaved= 2 IEnMin= 2 EnMin=-0.988122166959209     IErMin= 2 ErrMin= 2.08D-04
 ErrMax= 2.08D-04  0.00D+00 EMaxC= 1.00D-01 BMatC= 3.23D-07 BMatP= 2.12D-04
 IDIUse=3 WtCom= 9.98D-01 WtEn= 2.08D-03
 Coeff-Com: -0.281D-01 0.103D+01
 Coeff-En:   0.000D+00 0.100D+01
 Coeff:     -0.280D-01 0.103D+01
 Gap=     0.161 Goal=   None    Shift=    0.000
 RMSDP=5.63D-05 MaxDP=2.25D-04 DE=-2.74D-04 OVMax= 3.40D-04

 Cycle   3  Pass 1  IDiag  1:
 E=-0.988122570656600     Delta-E=       -0.000000403697 Rises=F Damp=F
 DIIS: error= 1.13D-05 at cycle   3 NSaved=   3.
 NSaved= 3 IEnMin= 3 EnMin=-0.988122570656600     IErMin= 3 ErrMin= 1.13D-05
 ErrMax= 1.13D-05  0.00D+00 EMaxC= 1.00D-01 BMatC= 7.96D-10 BMatP= 3.23D-07
 IDIUse=1 WtCom= 1.00D+00 WtEn= 0.00D+00
 Coeff-Com: -0.762D-03-0.339D-01 0.103D+01
 Coeff:     -0.762D-03-0.339D-01 0.103D+01
 Gap=     0.161 Goal=   None    Shift=    0.000
 RMSDP=2.76D-06 MaxDP=1.14D-05 DE=-4.04D-07 OVMax= 1.18D-05

 Cycle   4  Pass 1  IDiag  1:
 E=-0.988122571485655     Delta-E=       -0.000000000829 Rises=F Damp=F
 DIIS: error= 2.97D-07 at cycle   4 NSaved=   4.
 NSaved= 4 IEnMin= 4 EnMin=-0.988122571485655     IErMin= 4 ErrMin= 2.97D-07
 ErrMax= 2.97D-07  0.00D+00 EMaxC= 1.00D-01 BMatC= 5.55D-13 BMatP= 7.96D-10
 IDIUse=1 WtCom= 1.00D+00 WtEn= 0.00D+00
 Coeff-Com:  0.442D-04 0.393D-02-0.109D+00 0.111D+01
 Coeff:      0.442D-04 0.393D-02-0.109D+00 0.111D+01
 Gap=     0.161 Goal=   None    Shift=    0.000
 RMSDP=8.63D-08 MaxDP=3.66D-07 DE=-8.29D-10 OVMax= 3.88D-07

 Cycle   5  Pass 1  IDiag  1:
 E=-0.988122571486283     Delta-E=       -0.000000000001 Rises=F Damp=F
 DIIS: error= 5.79D-10 at cycle   5 NSaved=   5.
 NSaved= 5 IEnMin= 5 EnMin=-0.988122571486283     IErMin= 5 ErrMin= 5.79D-10
 ErrMax= 5.79D-10  0.00D+00 EMaxC= 1.00D-01 BMatC= 1.56D-18 BMatP= 5.55D-13
 IDIUse=1 WtCom= 1.00D+00 WtEn= 0.00D+00
 Coeff-Com: -0.619D-08-0.114D-04 0.288D-03-0.293D-02 0.100D+01
 Coeff:     -0.619D-08-0.114D-04 0.288D-03-0.293D-02 0.100D+01
 Gap=     0.161 Goal=   None    Shift=    0.000
 RMSDP=1.33D-10 MaxDP=5.68D-10 DE=-6.28D-13 OVMax= 1.26D-09

 Error on total polarization charges =  0.04794
 SCF Done:  E(RPBE1PBE) = -0.988122571486     A.U. after    5 cycles
            NFock=  5  Conv=0.13D-09     -V/T= 2.3245
 KE= 7.460547047020D-01 PE=-2.353771982062D+00 EE= 3.551621744156D-01
 Leave Link  502 at Tue Oct 28 15:58:49 2025, MaxMem=  2097152000 cpu:               5.6 elap:               1.0
 (Enter /home/pcmt/gaussian/g16.C.01/g16/l601.exe)
 Copying SCF densities to generalized density rwf, IOpCl= 0 IROHF=0.

 **********************************************************************

            Population analysis using the SCF Density.

 **********************************************************************

 Orbital symmetries:
       Occupied  (SGG)
       Virtual   (SGU) (SGG) (SGU) (SGG) (PIU) (PIU) (PIG) (PIG)
                 (SGU) (SGG) (SGU)
 The electronic state is 1-SGG.
 Alpha  occ. eigenvalues --   -0.30246
 Alpha virt. eigenvalues --   -0.14167   0.29924   0.30643   1.29517   1.39605
 Alpha virt. eigenvalues --    1.39605   1.42623   1.42623   1.58063   2.18696
 Alpha virt. eigenvalues --    2.35056
     Molecular Orbital Coefficients:
                           1         2         3         4         5
                       (SGG)--O  (SGU)--V  (SGG)--V  (SGU)--V  (SGG)--V
     Eigenvalues --    -0.30246  -0.14167   0.29924   0.30643   1.29517
   1 1   H  1S          0.14730   0.16714   0.08699  -0.09391   0.11400
   2        2S          0.27412   0.30102   0.99558  -0.95126  -0.13781
   3        3S          0.29356   0.48140  -0.95413   1.43890   0.10639
   4        4PX         0.00000   0.00000   0.00000   0.00000   0.00000
   5        4PY         0.00000   0.00000   0.00000   0.00000   0.00000
   6        4PZ        -0.00991   0.01030  -0.01677   0.00569   0.69244
   7 2   H  1S          0.14730  -0.16714   0.08699   0.09391   0.11400
   8        2S          0.27412  -0.30102   0.99558   0.95126  -0.13781
   9        3S          0.29356  -0.48140  -0.95413  -1.43890   0.10639
  10        4PX         0.00000   0.00000   0.00000   0.00000   0.00000
  11        4PY         0.00000   0.00000   0.00000   0.00000   0.00000
  12        4PZ         0.00991   0.01030   0.01677   0.00569  -0.69244
                           6         7         8         9        10
                       (PIU)--V  (PIU)--V  (PIG)--V  (PIG)--V  (SGU)--V
     Eigenvalues --     1.39605   1.39605   1.42623   1.42623   1.58063
   1 1   H  1S          0.00000   0.00000   0.00000   0.00000  -0.07709
   2        2S          0.00000   0.00000   0.00000   0.00000   0.19316
   3        3S          0.00000   0.00000   0.00000   0.00000  -0.31331
   4        4PX         0.00000   0.70594   0.00000   0.70828   0.00000
   5        4PY         0.70594   0.00000   0.70828   0.00000   0.00000
   6        4PZ         0.00000   0.00000   0.00000   0.00000   0.72832
   7 2   H  1S          0.00000   0.00000   0.00000   0.00000   0.07709
   8        2S          0.00000   0.00000   0.00000   0.00000  -0.19316
   9        3S          0.00000   0.00000   0.00000   0.00000   0.31331
  10        4PX         0.00000   0.70594   0.00000  -0.70828   0.00000
  11        4PY         0.70594   0.00000  -0.70828   0.00000   0.00000
  12        4PZ         0.00000   0.00000   0.00000   0.00000   0.72832
                          11        12
                       (SGG)--V  (SGU)--V
     Eigenvalues --     2.18696   2.35056
   1 1   H  1S         -1.07067  -1.10343
   2        2S          1.32280   1.39439
   3        3S         -0.53459  -0.72587
   4        4PX         0.00000   0.00000
   5        4PY         0.00000   0.00000
   6        4PZ         0.08716  -0.05014
   7 2   H  1S         -1.07067   1.10343
   8        2S          1.32280  -1.39439
   9        3S         -0.53459   0.72587
  10        4PX         0.00000   0.00000
  11        4PY         0.00000   0.00000
  12        4PZ        -0.08716  -0.05014
          Condensed to atoms (all electrons):
               1          2
     1  H    0.798725   0.201275
     2  H    0.201275   0.798725
 Mulliken charges:
               1
     1  H   -0.000000
     2  H   -0.000000
 Sum of Mulliken charges =  -0.00000
 Mulliken charges with hydrogens summed into heavy atoms:
               1
 Electronic spatial extent (au):  <R**2>=             13.1002
 Charge=             -0.0000 electrons
 Dipole moment (field-independent basis, Debye):
    X=              0.0000    Y=             -0.0000    Z=              0.0000  Tot=              0.0000
 Quadrupole moment (field-independent basis, Debye-Ang):
   XX=             -3.2572   YY=             -3.2572   ZZ=             -1.4993
   XY=             -0.0000   XZ=             -0.0000   YZ=              0.0000
 Traceless Quadrupole moment (field-independent basis, Debye-Ang):
   XX=             -0.5860   YY=             -0.5860   ZZ=              1.1719
   XY=             -0.0000   XZ=             -0.0000   YZ=              0.0000
 Octapole moment (field-independent basis, Debye-Ang**2):
  XXX=             -0.0000  YYY=             -0.0000  ZZZ=             -0.0000  XYY=             -0.0000
  XXY=             -0.0000  XXZ=              0.0000  XZZ=             -0.0000  YZZ=              0.0000
  YYZ=              0.0000  XYZ=              0.0000
 Hexadecapole moment (field-independent basis, Debye-Ang**3):
 XXXX=             -4.6920 YYYY=             -4.6920 ZZZZ=            -17.3953 XXXY=             -0.0000
 XXXZ=              0.0000 YYYX=             -0.0000 YYYZ=              0.0000 ZZZX=              0.0000
 ZZZY=              0.0000 XXYY=             -1.5640 XXZZ=             -4.0338 YYZZ=             -4.0338
 XXYZ=              0.0000 YYXZ=              0.0000 ZZXY=             -0.0000
 N-N= 2.644325314579D-01 E-N=-2.353771982330D+00  KE= 7.460547047020D-01
 Symmetry AG   KE= 7.460547047020D-01
 Symmetry B1G  KE= 0.000000000000D+00
 Symmetry B2G  KE= 7.860834293285D-36
 Symmetry B3G  KE= 7.860834293285D-36
 Symmetry AU   KE= 0.000000000000D+00
 Symmetry B1U  KE= 2.129176277259D-32
 Symmetry B2U  KE= 4.381941322305D-36
 Symmetry B3U  KE= 4.381941322305D-36
 Orbital energies and kinetic energies (alpha):
                                 1                 2
   1         (SGG)--O         -0.302463          0.373027
   2         (SGU)--V         -0.141666          0.524869
   3         (SGG)--V          0.299238          0.688684
   4         (SGU)--V          0.306431          0.679125
   5         (SGG)--V          1.295165          1.893444
   6         (PIU)--V          1.396048          1.984964
   7         (PIU)--V          1.396048          1.984964
   8         (PIG)--V          1.426233          2.015136
   9         (PIG)--V          1.426233          2.015136
  10         (SGU)--V          1.580629          2.176834
  11         (SGG)--V          2.186960          3.747892
  12         (SGU)--V          2.350561          3.921634
 Total kinetic energy from orbitals= 7.460547047020D-01
 No NMR shielding tensors so no spin-rotation constants.
 Leave Link  601 at Tue Oct 28 15:58:50 2025, MaxMem=  2097152000 cpu:               1.4 elap:               0.3
 (Enter /home/pcmt/gaussian/g16.C.01/g16/l701.exe)
 ... and contract with generalized density number  0.
 Compute integral first derivatives.
 R6Disp: Adding Grimme-D3(BJ) dispersion energy 1st derivatives to the gradient.
 D1PCM: C-PCM CHGder 1st derivatives, ID1Alg=3 FixD1E=F DoIter=F DoCFld=F I1PDM=0.
 GePol: Maximum number of non-zero 1st derivatives   =     113
 Leave Link  701 at Tue Oct 28 15:58:50 2025, MaxMem=  2097152000 cpu:               1.7 elap:               0.3
 (Enter /home/pcmt/gaussian/g16.C.01/g16/l702.exe)
 L702 exits ... SP integral derivatives will be done elsewhere.
 Leave Link  702 at Tue Oct 28 15:58:50 2025, MaxMem=  2097152000 cpu:               0.5 elap:               0.2
 (Enter /home/pcmt/gaussian/g16.C.01/g16/l703.exe)
 Integral derivatives from FoFJK, PRISM(SPDF).
 Compute integral first derivatives, UseDBF=F ICtDFT=           0.
 Calling FoFJK, ICntrl=      2127 FMM=F ISym2X=1 I1Cent= 0 IOpClX= 0 NMat=1 NMatS=1 NMatT=0.
 FoFJK:  IHMeth= 1 ICntrl=    2127 DoSepK=F KAlg= 0 I1Cent=           0 FoldK=F
 IRaf=         0 NMat=       1 IRICut=       1 DoRegI=T DoRafI=F ISym2E= 1 IDoP0=0 IntGTp=1.
 FoFCou: FMM=F IPFlag=           0 FMFlag=      100000 FMFlg1=         800
         NFxFlg=           0 DoJE=F BraDBF=F KetDBF=F FulRan=T
         wScrn=  0.000000 ICntrl=      2127 IOpCl=  0 I1Cent=           0 NGrid=           0
         NMat0=    1 NMatS0=      1 NMatT0=    0 NMatD0=    1 NMtDS0=    0 NMtDT0=    0
 Petite list used in FoFCou.
 Leave Link  703 at Tue Oct 28 15:58:51 2025, MaxMem=  2097152000 cpu:               1.5 elap:               0.3
 (Enter /home/pcmt/gaussian/g16.C.01/g16/l716.exe)
 Dipole        = 0.00000000D+00-2.40741243D-35 2.22044605D-16
 ***** Axes restored to original set *****
 -------------------------------------------------------------------
 Center     Atomic                   Forces (Hartrees/Bohr)
 Number     Number              X              Y              Z
 -------------------------------------------------------------------
      1        1           0.000000000    0.000000000    0.056708382
      2        1          -0.000000000   -0.000000000   -0.056708382
 -------------------------------------------------------------------
 Cartesian Forces:  Max     0.056708382 RMS     0.032740599
 Leave Link  716 at Tue Oct 28 15:58:51 2025, MaxMem=  2097152000 cpu:               0.5 elap:               0.2
 (Enter /home/pcmt/gaussian/g16.C.01/g16/l103.exe)

 GradGradGradGradGradGradGradGradGradGradGradGradGradGradGradGradGradGrad
 Berny optimization.
 FormGI is forming the generalized inverse of G from B-inverse, IUseBI=4.
 Internal  Forces:  Max     0.056708382 RMS     0.056708382
 Search for a local minimum.
 Step number   1 out of a maximum of   20
 All quantities printed in internal units (Hartrees-Bohrs-Radians)
 RMS Force = .56708D-01 SwitMx=.10000D-02 MixMth= 1
 Mixed Optimization -- RFO/linear search
 Second derivative matrix not updated -- first step.
 The second derivative matrix:
                          R1
           R1           0.02662
 ITU=  0
     Eigenvalues ---    0.02662
 RFO step:  Lambda=-4.49383830D-02 EMin= 2.66227270D-02
 Linear search not attempted -- first point.
 Maximum step size (   0.300) exceeded in Quadratic search.
    -- Step size scaled by   0.379
 Iteration  1 RMS(Cart)=  0.14142136 RMS(Int)=  0.10000000
 Iteration  2 RMS(Cart)=  0.07071068 RMS(Int)=  0.00000000
 Iteration  3 RMS(Cart)=  0.00000000 RMS(Int)=  0.00000000
 ITry= 1 IFail=0 DXMaxC= 1.50D-01 DCOld= 1.00D+10 DXMaxT= 3.00D-01 DXLimC= 3.00D+00 Rises=F
 ClnCor:  largest displacement from symmetrization is 4.44D-16 for atom     2.
 Variable       Old X    -DE/DX   Delta X   Delta X   Delta X     New X
                                 (Linear)    (Quad)   (Total)
    R1        3.77945  -0.05671   0.00000  -0.30000  -0.30000   3.47945
         Item               Value     Threshold  Converged?
 Maximum Force            0.056708     0.000450     NO 
 RMS     Force            0.056708     0.000300     NO 
 Maximum Displacement     0.150000     0.001800     NO 
 RMS     Displacement     0.212132     0.001200     NO 
 Predicted change in Energy=-1.581449D-02
 Lowest energy point so far.  Saving SCF results.
 GradGradGradGradGradGradGradGradGradGradGradGradGradGradGradGradGradGrad

 Leave Link  103 at Tue Oct 28 15:58:51 2025, MaxMem=  2097152000 cpu:               0.3 elap:               0.1
 (Enter /home/pcmt/gaussian/g16.C.01/g16/l202.exe)
                          Input orientation:                          
 ---------------------------------------------------------------------
 Center     Atomic      Atomic             Coordinates (Angstroms)
 Number     Number       Type             X           Y           Z
 ---------------------------------------------------------------------
      1          1           0        0.000000    0.000000    0.079377
      2          1           0        0.000000    0.000000    1.920623
 ---------------------------------------------------------------------
 Stoichiometry    H2
 Framework group  D*H[C*(H.H)]
 Deg. of freedom     1
 Full point group                 D*H     NOp   8
 RotChk:  IX=0 Diff= 0.00D+00
 Largest Abelian subgroup         D2H     NOp   8
 Largest concise Abelian subgroup C2      NOp   2
                         Standard orientation:                         
 ---------------------------------------------------------------------
 Center     Atomic      Atomic             Coordinates (Angstroms)
 Number     Number       Type             X           Y           Z
 ---------------------------------------------------------------------
      1          1           0        0.000000    0.000000    0.920623
      2          1           0        0.000000    0.000000   -0.920623
 ---------------------------------------------------------------------
 Rotational constants (GHZ):           0.0000000         295.8271467         295.8271467
 Leave Link  202 at Tue Oct 28 15:58:51 2025, MaxMem=  2097152000 cpu:               0.7 elap:               0.3
 (Enter /home/pcmt/gaussian/g16.C.01/g16/l301.exe)
 Basis read from rwf:  (5D, 7F)
 No pseudopotential information found on rwf file.
 There are     4 symmetry adapted cartesian basis functions of AG  symmetry.
 There are     0 symmetry adapted cartesian basis functions of B1G symmetry.
 There are     1 symmetry adapted cartesian basis functions of B2G symmetry.
 There are     1 symmetry adapted cartesian basis functions of B3G symmetry.
 There are     0 symmetry adapted cartesian basis functions of AU  symmetry.
 There are     4 symmetry adapted cartesian basis functions of B1U symmetry.
 There are     1 symmetry adapted cartesian basis functions of B2U symmetry.
 There are     1 symmetry adapted cartesian basis functions of B3U symmetry.
 There are     4 symmetry adapted basis functions of AG  symmetry.
 There are     0 symmetry adapted basis functions of B1G symmetry.
 There are     1 symmetry adapted basis functions of B2G symmetry.
 There are     1 symmetry adapted basis functions of B3G symmetry.
 There are     0 symmetry adapted basis functions of AU  symmetry.
 There are     4 symmetry adapted basis functions of B1U symmetry.
 There are     1 symmetry adapted basis functions of B2U symmetry.
 There are     1 symmetry adapted basis functions of B3U symmetry.
    12 basis functions,    16 primitive gaussians,    12 cartesian basis functions
     1 alpha electrons        1 beta electrons
       nuclear repulsion energy         0.2874015588 Hartrees.
 IExCor= 1009 DFT=T Ex+Corr=PBE1PBE ExCW=0 ScaHFX=  0.250000
 ScaDFX=  0.750000  0.750000  1.000000  1.000000 ScalE2=  1.000000  1.000000
 IRadAn=      5 IRanWt=     -1 IRanGd=            0 ICorTp=0 IEmpDi=141
 NAtoms=    2 NActive=    2 NUniq=    1 SFac= 4.00D+00 NAtFMM=   60 NAOKFM=F Big=F
 Integral buffers will be    131072 words long.
 Raffenetti 2 integral format.
 Two-electron integral symmetry is turned on.
 R6Disp:  Grimme-D3(BJ) Dispersion energy=       -0.0001584205 Hartrees.
 Nuclear repulsion after empirical dispersion term =        0.2872431382 Hartrees.
 No density basis found on file    724.
 ------------------------------------------------------------------------------
 Polarizable Continuum Model (PCM)
 =================================
 Model                : C-PCM.
 Atomic radii         : Klamt.
 Polarization charges : Total charges.
 Charge compensation  : None.
 Solution method      : On-the-fly selection.
 Cavity type          : Scaled VdW (van der Waals Surface) (Alpha=1.100).
 Cavity algorithm     : GePol (No added spheres)
                        Default sphere list used, NSphG=    2.
                        Lebedev-Laikov grids with approx.  5.0 points / Ang**2.
                        Smoothing algorithm: York/Karplus (Gamma=1.0000).
                        Polarization charges: spherical gaussians, with
                                              point-specific exponents (IZeta= 3).
                        Self-potential: point-specific (ISelfS= 7).
                        Self-field    : sphere-specific E.n sum rule (ISelfD= 2).
 1st derivatives      : Analytical E(r).r(x)/FMM algorithm (CHGder, D1EAlg=3).
                        Cavity 1st derivative terms included.
 Solvent              : Water, Eps=  78.355300 Eps(inf)=   1.777849
 ------------------------------------------------------------------------------
 Spheres list:
 ISph  on   Nord     Re0    Alpha      Xe            Ye            Ze
    1   H      1    1.3000  1.000      0.000000      0.000000      0.920623
    2   H      2    1.3000  1.000      0.000000      0.000000     -0.920623
 ------------------------------------------------------------------------------
 GePol: Number of generator spheres                  =       2
 GePol: Total number of spheres                      =       2
 GePol: Number of exposed spheres                    =       2 (100.00%)
 GePol: Number of points                             =     194
 GePol: Average weight of points                     =       0.19
 GePol: Minimum weight of points                     =   0.81D-01
 GePol: Maximum weight of points                     =    0.21116
 GePol: Number of points with low weight             =       0
 GePol: Fraction of low-weight points (<1% of avg)   =       0.00%
 GePol: Cavity surface area                          =     36.627 Ang**2
 GePol: Cavity volume                                =     17.408 Ang**3
 Leave Link  301 at Tue Oct 28 15:58:52 2025, MaxMem=  2097152000 cpu:               1.3 elap:               0.4
 (Enter /home/pcmt/gaussian/g16.C.01/g16/l302.exe)
 NPDir=0 NMtPBC=     1 NCelOv=     1 NCel=       1 NClECP=     1 NCelD=      1
         NCelK=      1 NCelE2=     1 NClLst=     1 CellRange=     0.0.
 One-electron integrals computed using PRISM.
 One-electron integral symmetry used in STVInt
 NBasis=    12 RedAO= T EigKep=  8.27D-02  NBF=     4     0     1     1     0     4     1     1
 NBsUse=    12 1.00D-06 EigRej= -1.00D+00 NBFU=     4     0     1     1     0     4     1     1
 Precomputing XC quadrature grid using
 IXCGrd= 4 IRadAn=           5 IRanWt=          -1 IRanGd=           0 AccXCQ= 0.00D+00.
 Generated NRdTot=       0 NPtTot=           0 NUsed=           0 NTot=          32
 NSgBfM=    12    12    12    12    12 MxSgAt=     2 MxSgA2=     2.
 Leave Link  302 at Tue Oct 28 15:58:52 2025, MaxMem=  2097152000 cpu:               2.1 elap:               0.4
 (Enter /home/pcmt/gaussian/g16.C.01/g16/l303.exe)
 DipDrv:  MaxL=1.
 Leave Link  303 at Tue Oct 28 15:58:52 2025, MaxMem=  2097152000 cpu:               0.8 elap:               0.3
 (Enter /home/pcmt/gaussian/g16.C.01/g16/l401.exe)
 Initial guess from the checkpoint file:  "H2.pbe0-d3bj-cosmo.optg-freq.chk"
 B after Tr=    -0.000000    0.000000   -0.000000
         Rot=    1.000000    0.000000    0.000000    0.000000 Ang=   0.00 deg.
 Guess basis will be translated and rotated to current coordinates.
 JPrj=2 DoOrth=T DoCkMO=T.
 Initial guess orbital symmetries:
       Occupied  (SGG)
       Virtual   (SGU) (SGG) (SGU) (SGG) (PIU) (PIU) (PIG) (PIG)
                 (SGU) (SGG) (SGU)
 The electronic state of the initial guess is 1-SGG.
 Leave Link  401 at Tue Oct 28 15:58:53 2025, MaxMem=  2097152000 cpu:               1.4 elap:               0.4
 (Enter /home/pcmt/gaussian/g16.C.01/g16/l502.exe)
 Keep R1 ints in memory in symmetry-blocked form, NReq=6904681.
 FoFCou: FMM=F IPFlag=           0 FMFlag=           0 FMFlg1=           0
         NFxFlg=           0 DoJE=F BraDBF=F KetDBF=F FulRan=T
         wScrn=  0.000000 ICntrl=       600 IOpCl=  0 I1Cent=           0 NGrid=           0
         NMat0=    1 NMatS0=     78 NMatT0=    0 NMatD0=    1 NMtDS0=    0 NMtDT0=    0
 Petite list used in FoFCou.
 Closed shell SCF:
 Using DIIS extrapolation, IDIIS=  1040.
 NGot=  2097152000 LenX=  2097148871 LenY=  2097147989
 Requested convergence on RMS density matrix=1.00D-08 within 200 cycles.
 Requested convergence on MAX density matrix=1.00D-06.
 Requested convergence on             energy=1.00D-06.
 No special actions if energy rises.

 Cycle   1  Pass 1  IDiag  1:
 Inv3:  Mode=1 IEnd=      112908.
 Iteration    1 A*A^-1 deviation from unit magnitude is 2.22D-15 for    147.
 Iteration    1 A*A^-1 deviation from orthogonality  is 2.22D-15 for    136     38.
 Iteration    1 A^-1*A deviation from unit magnitude is 2.22D-15 for    152.
 Iteration    1 A^-1*A deviation from orthogonality  is 1.11D-15 for    144     46.
 E= -1.00621539155688    
 DIIS: error= 4.37D-03 at cycle   1 NSaved=   1.
 NSaved= 1 IEnMin= 1 EnMin= -1.00621539155688     IErMin= 1 ErrMin= 4.37D-03
 ErrMax= 4.37D-03  0.00D+00 EMaxC= 1.00D-01 BMatC= 8.56D-05 BMatP= 8.56D-05
 IDIUse=3 WtCom= 9.56D-01 WtEn= 4.37D-02
 Coeff-Com:  0.100D+01
 Coeff-En:   0.100D+01
 Coeff:      0.100D+01
 Gap=     0.187 Goal=   None    Shift=    0.000
 GapD=    0.187 DampG=1.000 DampE=1.000 DampFc=1.0000 IDamp=-1.
 RMSDP=1.39D-03 MaxDP=5.71D-03              OVMax= 1.17D-02

 Cycle   2  Pass 1  IDiag  1:
 E= -1.00640942318173     Delta-E=       -0.000194031625 Rises=F Damp=F
 DIIS: error= 7.82D-05 at cycle   2 NSaved=   2.
 NSaved= 2 IEnMin= 2 EnMin= -1.00640942318173     IErMin= 2 ErrMin= 7.82D-05
 ErrMax= 7.82D-05  0.00D+00 EMaxC= 1.00D-01 BMatC= 4.21D-08 BMatP= 8.56D-05
 IDIUse=1 WtCom= 1.00D+00 WtEn= 0.00D+00
 Coeff-Com:  0.113D-01 0.989D+00
 Coeff:      0.113D-01 0.989D+00
 Gap=     0.186 Goal=   None    Shift=    0.000
 RMSDP=1.22D-05 MaxDP=4.49D-05 DE=-1.94D-04 OVMax= 3.90D-05

 Cycle   3  Pass 1  IDiag  1:
 E= -1.00640946038894     Delta-E=       -0.000000037207 Rises=F Damp=F
 DIIS: error= 7.04D-06 at cycle   3 NSaved=   3.
 NSaved= 3 IEnMin= 3 EnMin= -1.00640946038894     IErMin= 3 ErrMin= 7.04D-06
 ErrMax= 7.04D-06  0.00D+00 EMaxC= 1.00D-01 BMatC= 2.41D-10 BMatP= 4.21D-08
 IDIUse=1 WtCom= 1.00D+00 WtEn= 0.00D+00
 Coeff-Com: -0.446D-03-0.894D-01 0.109D+01
 Coeff:     -0.446D-03-0.894D-01 0.109D+01
 Gap=     0.186 Goal=   None    Shift=    0.000
 RMSDP=1.78D-06 MaxDP=7.84D-06 DE=-3.72D-08 OVMax= 5.99D-06

 Cycle   4  Pass 1  IDiag  1:
 E= -1.00640946063114     Delta-E=       -0.000000000242 Rises=F Damp=F
 DIIS: error= 9.01D-08 at cycle   4 NSaved=   4.
 NSaved= 4 IEnMin= 4 EnMin= -1.00640946063114     IErMin= 4 ErrMin= 9.01D-08
 ErrMax= 9.01D-08  0.00D+00 EMaxC= 1.00D-01 BMatC= 6.57D-14 BMatP= 2.41D-10
 IDIUse=1 WtCom= 1.00D+00 WtEn= 0.00D+00
 Coeff-Com:  0.453D-04 0.687D-02-0.900D-01 0.108D+01
 Coeff:      0.453D-04 0.687D-02-0.900D-01 0.108D+01
 Gap=     0.186 Goal=   None    Shift=    0.000
 RMSDP=2.61D-08 MaxDP=1.11D-07 DE=-2.42D-10 OVMax= 1.58D-07

 Cycle   5  Pass 1  IDiag  1:
 E= -1.00640946063123     Delta-E=       -0.000000000000 Rises=F Damp=F
 DIIS: error= 1.43D-10 at cycle   5 NSaved=   5.
 NSaved= 5 IEnMin= 5 EnMin= -1.00640946063123     IErMin= 5 ErrMin= 1.43D-10
 ErrMax= 1.43D-10  0.00D+00 EMaxC= 1.00D-01 BMatC= 1.00D-19 BMatP= 6.57D-14
 IDIUse=1 WtCom= 1.00D+00 WtEn= 0.00D+00
 Coeff-Com: -0.227D-09 0.473D-05-0.624D-04 0.951D-03 0.999D+00
 Coeff:     -0.227D-09 0.473D-05-0.624D-04 0.951D-03 0.999D+00
 Gap=     0.186 Goal=   None    Shift=    0.000
 RMSDP=4.05D-11 MaxDP=1.64D-10 DE=-8.24D-14 OVMax= 3.53D-10

 Error on total polarization charges =  0.04501
 SCF Done:  E(RPBE1PBE) =  -1.00640946063     A.U. after    5 cycles
            NFock=  5  Conv=0.41D-10     -V/T= 2.3412
 KE= 7.503651097959D-01 PE=-2.419198375169D+00 EE= 3.751806665310D-01
 Leave Link  502 at Tue Oct 28 15:58:54 2025, MaxMem=  2097152000 cpu:               6.9 elap:               1.2
 (Enter /home/pcmt/gaussian/g16.C.01/g16/l701.exe)
 ... and contract with generalized density number  0.
 Compute integral first derivatives.
 R6Disp: Adding Grimme-D3(BJ) dispersion energy 1st derivatives to the gradient.
 D1PCM: C-PCM CHGder 1st derivatives, ID1Alg=3 FixD1E=F DoIter=F DoCFld=F I1PDM=0.
 GePol: Maximum number of non-zero 1st derivatives   =     105
 Leave Link  701 at Tue Oct 28 15:58:55 2025, MaxMem=  2097152000 cpu:               2.7 elap:               0.6
 (Enter /home/pcmt/gaussian/g16.C.01/g16/l702.exe)
 L702 exits ... SP integral derivatives will be done elsewhere.
 Leave Link  702 at Tue Oct 28 15:58:55 2025, MaxMem=  2097152000 cpu:               0.5 elap:               0.3
 (Enter /home/pcmt/gaussian/g16.C.01/g16/l703.exe)
 Integral derivatives from FoFJK, PRISM(SPDF).
 Compute integral first derivatives, UseDBF=F ICtDFT=           0.
 Calling FoFJK, ICntrl=      2127 FMM=F ISym2X=1 I1Cent= 0 IOpClX= 0 NMat=1 NMatS=1 NMatT=0.
 FoFJK:  IHMeth= 1 ICntrl=    2127 DoSepK=F KAlg= 0 I1Cent=           0 FoldK=F
 IRaf=         0 NMat=       1 IRICut=       1 DoRegI=T DoRafI=F ISym2E= 1 IDoP0=0 IntGTp=1.
 FoFCou: FMM=F IPFlag=           0 FMFlag=      100000 FMFlg1=         800
         NFxFlg=           0 DoJE=F BraDBF=F KetDBF=F FulRan=T
         wScrn=  0.000000 ICntrl=      2127 IOpCl=  0 I1Cent=           0 NGrid=           0
         NMat0=    1 NMatS0=      1 NMatT0=    0 NMatD0=    1 NMtDS0=    0 NMtDT0=    0
 Petite list used in FoFCou.
 Leave Link  703 at Tue Oct 28 15:58:56 2025, MaxMem=  2097152000 cpu:               2.5 elap:               0.6
 (Enter /home/pcmt/gaussian/g16.C.01/g16/l716.exe)
 Dipole        =-1.47911420D-31 0.00000000D+00 0.00000000D+00
 ***** Axes restored to original set *****
 -------------------------------------------------------------------
 Center     Atomic                   Forces (Hartrees/Bohr)
 Number     Number              X              Y              Z
 -------------------------------------------------------------------
      1        1           0.000000000    0.000000000    0.065375331
      2        1          -0.000000000   -0.000000000   -0.065375331
 -------------------------------------------------------------------
 Cartesian Forces:  Max     0.065375331 RMS     0.037744465
 Leave Link  716 at Tue Oct 28 15:58:56 2025, MaxMem=  2097152000 cpu:               0.7 elap:               0.3
 (Enter /home/pcmt/gaussian/g16.C.01/g16/l103.exe)

 GradGradGradGradGradGradGradGradGradGradGradGradGradGradGradGradGradGrad
 Berny optimization.
 Using GEDIIS/GDIIS optimizer.
 Red2BG is reusing G-inverse.
 Internal  Forces:  Max     0.065375331 RMS     0.065375331
 Search for a local minimum.
 Step number   2 out of a maximum of   20
 All quantities printed in internal units (Hartrees-Bohrs-Radians)
 RMS Force = .65375D-01 SwitMx=.10000D-02 MixMth= 1
 Mixed Optimization -- RFO/linear search
 Update second derivatives using D2CorX and points    1    2
 DE= -1.83D-02 DEPred=-1.58D-02 R= 1.16D+00
 TightC=F SS=  1.41D+00  RLast= 3.00D-01 DXNew= 5.0454D-01 9.0000D-01
 Trust test= 1.16D+00 RLast= 3.00D-01 DXMaxT set to 5.05D-01
 The second derivative matrix:
                          R1
           R1          -0.02889
 ITU=  1  0
 Use linear search instead of GDIIS.
     Eigenvalues ---   -0.02889
 Eigenvalue     1 is  -2.89D-02 should be greater than     0.000000 Eigenvector:
                          R1
   1                    1.00000
 RFO step:  Lambda=-8.13970598D-02 EMin=-2.88898321D-02
 Skip linear search -- no minimum in search direction.
 Maximum step size (   0.505) exceeded in Quadratic search.
    -- Step size scaled by   0.505
 Iteration  1 RMS(Cart)=  0.14142136 RMS(Int)=  0.30453785
 Iteration  2 RMS(Cart)=  0.14142136 RMS(Int)=  0.10453785
 Iteration  3 RMS(Cart)=  0.07391942 RMS(Int)=  0.00000000
 Iteration  4 RMS(Cart)=  0.00000000 RMS(Int)=  0.00000000
 ITry= 1 IFail=0 DXMaxC= 2.52D-01 DCOld= 1.00D+10 DXMaxT= 5.05D-01 DXLimC= 3.00D+00 Rises=F
 ClnCor:  largest displacement from symmetrization is 4.44D-16 for atom     2.
 Variable       Old X    -DE/DX   Delta X   Delta X   Delta X     New X
                                 (Linear)    (Quad)   (Total)
    R1        3.47945  -0.06538   0.00000  -0.50454  -0.50454   2.97491
         Item               Value     Threshold  Converged?
 Maximum Force            0.065375     0.000450     NO 
 RMS     Force            0.065375     0.000300     NO 
 Maximum Displacement     0.252269     0.001800     NO 
 RMS     Displacement     0.356762     0.001200     NO 
 Predicted change in Energy=-3.666140D-02
 Lowest energy point so far.  Saving SCF results.
 GradGradGradGradGradGradGradGradGradGradGradGradGradGradGradGradGradGrad

 Leave Link  103 at Tue Oct 28 15:58:56 2025, MaxMem=  2097152000 cpu:               0.3 elap:               0.2
 (Enter /home/pcmt/gaussian/g16.C.01/g16/l202.exe)
                          Input orientation:                          
 ---------------------------------------------------------------------
 Center     Atomic      Atomic             Coordinates (Angstroms)
 Number     Number       Type             X           Y           Z
 ---------------------------------------------------------------------
      1          1           0        0.000000    0.000000    0.212872
      2          1           0        0.000000    0.000000    1.787128
 ---------------------------------------------------------------------
 Stoichiometry    H2
 Framework group  D*H[C*(H.H)]
 Deg. of freedom     1
 Full point group                 D*H     NOp   8
 RotChk:  IX=0 Diff= 0.00D+00
 Largest Abelian subgroup         D2H     NOp   8
 Largest concise Abelian subgroup C2      NOp   2
                         Standard orientation:                         
 ---------------------------------------------------------------------
 Center     Atomic      Atomic             Coordinates (Angstroms)
 Number     Number       Type             X           Y           Z
 ---------------------------------------------------------------------
      1          1           0        0.000000    0.000000    0.787128
      2          1           0        0.000000    0.000000   -0.787128
 ---------------------------------------------------------------------
 Rotational constants (GHZ):           0.0000000         404.6791587         404.6791587
 Leave Link  202 at Tue Oct 28 15:58:56 2025, MaxMem=  2097152000 cpu:               0.3 elap:               0.1
 (Enter /home/pcmt/gaussian/g16.C.01/g16/l301.exe)
 Basis read from rwf:  (5D, 7F)
 No pseudopotential information found on rwf file.
 There are     4 symmetry adapted cartesian basis functions of AG  symmetry.
 There are     0 symmetry adapted cartesian basis functions of B1G symmetry.
 There are     1 symmetry adapted cartesian basis functions of B2G symmetry.
 There are     1 symmetry adapted cartesian basis functions of B3G symmetry.
 There are     0 symmetry adapted cartesian basis functions of AU  symmetry.
 There are     4 symmetry adapted cartesian basis functions of B1U symmetry.
 There are     1 symmetry adapted cartesian basis functions of B2U symmetry.
 There are     1 symmetry adapted cartesian basis functions of B3U symmetry.
 There are     4 symmetry adapted basis functions of AG  symmetry.
 There are     0 symmetry adapted basis functions of B1G symmetry.
 There are     1 symmetry adapted basis functions of B2G symmetry.
 There are     1 symmetry adapted basis functions of B3G symmetry.
 There are     0 symmetry adapted basis functions of AU  symmetry.
 There are     4 symmetry adapted basis functions of B1U symmetry.
 There are     1 symmetry adapted basis functions of B2U symmetry.
 There are     1 symmetry adapted basis functions of B3U symmetry.
    12 basis functions,    16 primitive gaussians,    12 cartesian basis functions
     1 alpha electrons        1 beta electrons
       nuclear repulsion energy         0.3361441257 Hartrees.
 IExCor= 1009 DFT=T Ex+Corr=PBE1PBE ExCW=0 ScaHFX=  0.250000
 ScaDFX=  0.750000  0.750000  1.000000  1.000000 ScalE2=  1.000000  1.000000
 IRadAn=      5 IRanWt=     -1 IRanGd=            0 ICorTp=0 IEmpDi=141
 NAtoms=    2 NActive=    2 NUniq=    1 SFac= 4.00D+00 NAtFMM=   60 NAOKFM=F Big=F
 Integral buffers will be    131072 words long.
 Raffenetti 2 integral format.
 Two-electron integral symmetry is turned on.
 R6Disp:  Grimme-D3(BJ) Dispersion energy=       -0.0001606399 Hartrees.
 Nuclear repulsion after empirical dispersion term =        0.3359834858 Hartrees.
 No density basis found on file    724.
 ------------------------------------------------------------------------------
 Polarizable Continuum Model (PCM)
 =================================
 Model                : C-PCM.
 Atomic radii         : Klamt.
 Polarization charges : Total charges.
 Charge compensation  : None.
 Solution method      : On-the-fly selection.
 Cavity type          : Scaled VdW (van der Waals Surface) (Alpha=1.100).
 Cavity algorithm     : GePol (No added spheres)
                        Default sphere list used, NSphG=    2.
                        Lebedev-Laikov grids with approx.  5.0 points / Ang**2.
                        Smoothing algorithm: York/Karplus (Gamma=1.0000).
                        Polarization charges: spherical gaussians, with
                                              point-specific exponents (IZeta= 3).
                        Self-potential: point-specific (ISelfS= 7).
                        Self-field    : sphere-specific E.n sum rule (ISelfD= 2).
 1st derivatives      : Analytical E(r).r(x)/FMM algorithm (CHGder, D1EAlg=3).
                        Cavity 1st derivative terms included.
 Solvent              : Water, Eps=  78.355300 Eps(inf)=   1.777849
 ------------------------------------------------------------------------------
 Spheres list:
 ISph  on   Nord     Re0    Alpha      Xe            Ye            Ze
    1   H      1    1.3000  1.000      0.000000      0.000000      0.787128
    2   H      2    1.3000  1.000      0.000000      0.000000     -0.787128
 ------------------------------------------------------------------------------
 GePol: Number of generator spheres                  =       2
 GePol: Total number of spheres                      =       2
 GePol: Number of exposed spheres                    =       2 (100.00%)
 GePol: Number of points                             =     194
 GePol: Average weight of points                     =       0.17
 GePol: Minimum weight of points                     =   0.11D-03
 GePol: Maximum weight of points                     =    0.21116
 GePol: Number of points with low weight             =      16
 GePol: Fraction of low-weight points (<1% of avg)   =       8.25%
 GePol: Cavity surface area                          =     33.865 Ang**2
 GePol: Cavity volume                                =     16.477 Ang**3
 Leave Link  301 at Tue Oct 28 15:58:57 2025, MaxMem=  2097152000 cpu:               1.1 elap:               0.3
 (Enter /home/pcmt/gaussian/g16.C.01/g16/l302.exe)
 NPDir=0 NMtPBC=     1 NCelOv=     1 NCel=       1 NClECP=     1 NCelD=      1
         NCelK=      1 NCelE2=     1 NClLst=     1 CellRange=     0.0.
 One-electron integrals computed using PRISM.
 One-electron integral symmetry used in STVInt
 NBasis=    12 RedAO= T EigKep=  7.40D-02  NBF=     4     0     1     1     0     4     1     1
 NBsUse=    12 1.00D-06 EigRej= -1.00D+00 NBFU=     4     0     1     1     0     4     1     1
 Precomputing XC quadrature grid using
 IXCGrd= 4 IRadAn=           5 IRanWt=          -1 IRanGd=           0 AccXCQ= 0.00D+00.
 Generated NRdTot=       0 NPtTot=           0 NUsed=           0 NTot=          32
 NSgBfM=    12    12    12    12    12 MxSgAt=     2 MxSgA2=     2.
 Leave Link  302 at Tue Oct 28 15:58:57 2025, MaxMem=  2097152000 cpu:               1.3 elap:               0.3
 (Enter /home/pcmt/gaussian/g16.C.01/g16/l303.exe)
 DipDrv:  MaxL=1.
 Leave Link  303 at Tue Oct 28 15:58:57 2025, MaxMem=  2097152000 cpu:               1.9 elap:               0.4
 (Enter /home/pcmt/gaussian/g16.C.01/g16/l401.exe)
 Initial guess from the checkpoint file:  "H2.pbe0-d3bj-cosmo.optg-freq.chk"
 B after Tr=    -0.000000    0.000000    0.000000
         Rot=    1.000000    0.000000    0.000000    0.000000 Ang=   0.00 deg.
 Guess basis will be translated and rotated to current coordinates.
 JPrj=2 DoOrth=T DoCkMO=T.
 Initial guess orbital symmetries:
       Occupied  (SGG)
       Virtual   (SGU) (SGG) (SGU) (SGG) (PIU) (PIU) (PIG) (PIG)
                 (SGU) (SGG) (SGU)
 The electronic state of the initial guess is 1-SGG.
 Leave Link  401 at Tue Oct 28 15:58:58 2025, MaxMem=  2097152000 cpu:               1.5 elap:               0.5
 (Enter /home/pcmt/gaussian/g16.C.01/g16/l502.exe)
 Keep R1 ints in memory in symmetry-blocked form, NReq=6904681.
 FoFCou: FMM=F IPFlag=           0 FMFlag=           0 FMFlg1=           0
         NFxFlg=           0 DoJE=F BraDBF=F KetDBF=F FulRan=T
         wScrn=  0.000000 ICntrl=       600 IOpCl=  0 I1Cent=           0 NGrid=           0
         NMat0=    1 NMatS0=     78 NMatT0=    0 NMatD0=    1 NMtDS0=    0 NMtDT0=    0
 Petite list used in FoFCou.
 Closed shell SCF:
 Using DIIS extrapolation, IDIIS=  1040.
 NGot=  2097152000 LenX=  2097148871 LenY=  2097147989
 Requested convergence on RMS density matrix=1.00D-08 within 200 cycles.
 Requested convergence on MAX density matrix=1.00D-06.
 Requested convergence on             energy=1.00D-06.
 No special actions if energy rises.

 Cycle   1  Pass 1  IDiag  1:
 Inv3:  Mode=1 IEnd=      112908.
 Iteration    1 A*A^-1 deviation from unit magnitude is 2.44D-15 for      5.
 Iteration    1 A*A^-1 deviation from orthogonality  is 2.27D-15 for    110     12.
 Iteration    1 A^-1*A deviation from unit magnitude is 2.22D-15 for      5.
 Iteration    1 A^-1*A deviation from orthogonality  is 2.46D-15 for    110     12.
 E= -1.04244450901969    
 DIIS: error= 9.96D-03 at cycle   1 NSaved=   1.
 NSaved= 1 IEnMin= 1 EnMin= -1.04244450901969     IErMin= 1 ErrMin= 9.96D-03
 ErrMax= 9.96D-03  0.00D+00 EMaxC= 1.00D-01 BMatC= 4.50D-04 BMatP= 4.50D-04
 IDIUse=3 WtCom= 9.00D-01 WtEn= 9.96D-02
 Coeff-Com:  0.100D+01
 Coeff-En:   0.100D+01
 Coeff:      0.100D+01
 Gap=     0.247 Goal=   None    Shift=    0.000
 GapD=    0.247 DampG=1.000 DampE=1.000 DampFc=1.0000 IDamp=-1.
 RMSDP=2.74D-03 MaxDP=1.08D-02              OVMax= 2.55D-02

 Cycle   2  Pass 1  IDiag  1:
 E= -1.04336756578272     Delta-E=       -0.000923056763 Rises=F Damp=F
 DIIS: error= 2.92D-04 at cycle   2 NSaved=   2.
 NSaved= 2 IEnMin= 2 EnMin= -1.04336756578272     IErMin= 2 ErrMin= 2.92D-04
 ErrMax= 2.92D-04  0.00D+00 EMaxC= 1.00D-01 BMatC= 5.56D-07 BMatP= 4.50D-04
 IDIUse=3 WtCom= 9.97D-01 WtEn= 2.92D-03
 Coeff-Com:  0.287D-01 0.971D+00
 Coeff-En:   0.000D+00 0.100D+01
 Coeff:      0.287D-01 0.971D+00
 Gap=     0.241 Goal=   None    Shift=    0.000
 RMSDP=8.20D-05 MaxDP=3.03D-04 DE=-9.23D-04 OVMax= 7.81D-04

 Cycle   3  Pass 1  IDiag  1:
 E= -1.04336861187977     Delta-E=       -0.000001046097 Rises=F Damp=F
 DIIS: error= 8.73D-06 at cycle   3 NSaved=   3.
 NSaved= 3 IEnMin= 3 EnMin= -1.04336861187977     IErMin= 3 ErrMin= 8.73D-06
 ErrMax= 8.73D-06  0.00D+00 EMaxC= 1.00D-01 BMatC= 4.19D-10 BMatP= 5.56D-07
 IDIUse=1 WtCom= 1.00D+00 WtEn= 0.00D+00
 Coeff-Com: -0.168D-02-0.497D-01 0.105D+01
 Coeff:     -0.168D-02-0.497D-01 0.105D+01
 Gap=     0.241 Goal=   None    Shift=    0.000
 RMSDP=1.42D-06 MaxDP=4.47D-06 DE=-1.05D-06 OVMax= 1.66D-05

 Cycle   4  Pass 1  IDiag  1:
 E= -1.04336861252198     Delta-E=       -0.000000000642 Rises=F Damp=F
 DIIS: error= 1.73D-07 at cycle   4 NSaved=   4.
 NSaved= 4 IEnMin= 4 EnMin= -1.04336861252198     IErMin= 4 ErrMin= 1.73D-07
 ErrMax= 1.73D-07  0.00D+00 EMaxC= 1.00D-01 BMatC= 1.97D-13 BMatP= 4.19D-10
 IDIUse=1 WtCom= 1.00D+00 WtEn= 0.00D+00
 Coeff-Com:  0.185D-03 0.500D-02-0.108D+00 0.110D+01
 Coeff:      0.185D-03 0.500D-02-0.108D+00 0.110D+01
 Gap=     0.241 Goal=   None    Shift=    0.000
 RMSDP=3.46D-08 MaxDP=1.53D-07 DE=-6.42D-10 OVMax= 1.37D-07

 Cycle   5  Pass 1  IDiag  1:
 E= -1.04336861252216     Delta-E=       -0.000000000000 Rises=F Damp=F
 DIIS: error= 2.35D-09 at cycle   5 NSaved=   5.
 NSaved= 5 IEnMin= 5 EnMin= -1.04336861252216     IErMin= 5 ErrMin= 2.35D-09
 ErrMax= 2.35D-09  0.00D+00 EMaxC= 1.00D-01 BMatC= 2.56D-17 BMatP= 1.97D-13
 IDIUse=1 WtCom= 1.00D+00 WtEn= 0.00D+00
 Coeff-Com: -0.439D-08 0.578D-05-0.136D-03 0.253D-02 0.998D+00
 Coeff:     -0.439D-08 0.578D-05-0.136D-03 0.253D-02 0.998D+00
 Gap=     0.241 Goal=   None    Shift=    0.000
 RMSDP=5.70D-10 MaxDP=2.18D-09 DE=-1.86D-13 OVMax= 5.43D-09

 Error on total polarization charges =  0.03929
 SCF Done:  E(RPBE1PBE) =  -1.04336861252     A.U. after    5 cycles
            NFock=  5  Conv=0.57D-09     -V/T= 2.3502
 KE= 7.727305608560D-01 PE=-2.567669985508D+00 EE= 4.155873263271D-01
 Leave Link  502 at Tue Oct 28 15:58:59 2025, MaxMem=  2097152000 cpu:               5.2 elap:               0.9
 (Enter /home/pcmt/gaussian/g16.C.01/g16/l701.exe)
 ... and contract with generalized density number  0.
 Compute integral first derivatives.
 R6Disp: Adding Grimme-D3(BJ) dispersion energy 1st derivatives to the gradient.
 D1PCM: C-PCM CHGder 1st derivatives, ID1Alg=3 FixD1E=F DoIter=F DoCFld=F I1PDM=0.
 GePol: Maximum number of non-zero 1st derivatives   =     109
 Leave Link  701 at Tue Oct 28 15:58:59 2025, MaxMem=  2097152000 cpu:               2.6 elap:               0.5
 (Enter /home/pcmt/gaussian/g16.C.01/g16/l702.exe)
 L702 exits ... SP integral derivatives will be done elsewhere.
 Leave Link  702 at Tue Oct 28 15:59:00 2025, MaxMem=  2097152000 cpu:               0.3 elap:               0.2
 (Enter /home/pcmt/gaussian/g16.C.01/g16/l703.exe)
 Integral derivatives from FoFJK, PRISM(SPDF).
 Compute integral first derivatives, UseDBF=F ICtDFT=           0.
 Calling FoFJK, ICntrl=      2127 FMM=F ISym2X=1 I1Cent= 0 IOpClX= 0 NMat=1 NMatS=1 NMatT=0.
 FoFJK:  IHMeth= 1 ICntrl=    2127 DoSepK=F KAlg= 0 I1Cent=           0 FoldK=F
 IRaf=         0 NMat=       1 IRICut=       1 DoRegI=T DoRafI=F ISym2E= 1 IDoP0=0 IntGTp=1.
 FoFCou: FMM=F IPFlag=           0 FMFlag=      100000 FMFlg1=         800
         NFxFlg=           0 DoJE=F BraDBF=F KetDBF=F FulRan=T
         wScrn=  0.000000 ICntrl=      2127 IOpCl=  0 I1Cent=           0 NGrid=           0
         NMat0=    1 NMatS0=      1 NMatT0=    0 NMatD0=    1 NMtDS0=    0 NMtDT0=    0
 Petite list used in FoFCou.
 Leave Link  703 at Tue Oct 28 15:59:00 2025, MaxMem=  2097152000 cpu:               1.0 elap:               0.3
 (Enter /home/pcmt/gaussian/g16.C.01/g16/l716.exe)
 Dipole        =-1.23259516D-31 2.40741243D-35-2.22044605D-16
 ***** Axes restored to original set *****
 -------------------------------------------------------------------
 Center     Atomic                   Forces (Hartrees/Bohr)
 Number     Number              X              Y              Z
 -------------------------------------------------------------------
      1        1           0.000000000    0.000000000    0.081153259
      2        1          -0.000000000   -0.000000000   -0.081153259
 -------------------------------------------------------------------
 Cartesian Forces:  Max     0.081153259 RMS     0.046853856
 Leave Link  716 at Tue Oct 28 15:59:00 2025, MaxMem=  2097152000 cpu:               0.6 elap:               0.3
 (Enter /home/pcmt/gaussian/g16.C.01/g16/l103.exe)

 GradGradGradGradGradGradGradGradGradGradGradGradGradGradGradGradGradGrad
 Berny optimization.
 Using GEDIIS/GDIIS optimizer.
 Red2BG is reusing G-inverse.
 Internal  Forces:  Max     0.081153259 RMS     0.081153259
 Search for a local minimum.
 Step number   3 out of a maximum of   20
 All quantities printed in internal units (Hartrees-Bohrs-Radians)
 RMS Force = .81153D-01 SwitMx=.10000D-02 MixMth= 1
 Mixed Optimization -- RFO/linear search
 Update second derivatives using D2CorX and points    2    3
 DE= -3.70D-02 DEPred=-3.67D-02 R= 1.01D+00
 TightC=F SS=  1.41D+00  RLast= 5.05D-01 DXNew= 8.4853D-01 1.5136D+00
 Trust test= 1.01D+00 RLast= 5.05D-01 DXMaxT set to 8.49D-01
 The second derivative matrix:
                          R1
           R1          -0.03127
 ITU=  1  1
 Use linear search instead of GDIIS.
     Eigenvalues ---   -0.03127
 Eigenvalue     1 is  -3.13D-02 should be greater than     0.000000 Eigenvector:
                          R1
   1                    1.00000
 RFO step:  Lambda=-9.82818693D-02 EMin=-3.12720389D-02
 Skip linear search -- no minimum in search direction.
 Maximum step size (   0.849) exceeded in Quadratic search.
    -- Step size scaled by   0.849
 Iteration  1 RMS(Cart)=  0.14142136 RMS(Int)=  0.64852814
 Iteration  2 RMS(Cart)=  0.14142136 RMS(Int)=  0.44852814
 Iteration  3 RMS(Cart)=  0.14142136 RMS(Int)=  0.24852814
 Iteration  4 RMS(Cart)=  0.14142136 RMS(Int)=  0.04852814
 Iteration  5 RMS(Cart)=  0.03431458 RMS(Int)=  0.00000000
 Iteration  6 RMS(Cart)=  0.00000000 RMS(Int)=  0.00000000
 ITry= 1 IFail=0 DXMaxC= 4.24D-01 DCOld= 1.00D+10 DXMaxT= 8.49D-01 DXLimC= 3.00D+00 Rises=F
 ClnCor:  largest displacement from symmetrization is 8.89D-16 for atom     2.
 Variable       Old X    -DE/DX   Delta X   Delta X   Delta X     New X
                                 (Linear)    (Quad)   (Total)
    R1        2.97491  -0.08115   0.00000  -0.84853  -0.84853   2.12639
         Item               Value     Threshold  Converged?
 Maximum Force            0.081153     0.000450     NO 
 RMS     Force            0.081153     0.000300     NO 
 Maximum Displacement     0.424264     0.001800     NO 
 RMS     Displacement     0.600000     0.001200     NO 
 Predicted change in Energy=-8.011876D-02
 Lowest energy point so far.  Saving SCF results.
 GradGradGradGradGradGradGradGradGradGradGradGradGradGradGradGradGradGrad

 Leave Link  103 at Tue Oct 28 15:59:00 2025, MaxMem=  2097152000 cpu:               0.2 elap:               0.1
 (Enter /home/pcmt/gaussian/g16.C.01/g16/l202.exe)
                          Input orientation:                          
 ---------------------------------------------------------------------
 Center     Atomic      Atomic             Coordinates (Angstroms)
 Number     Number       Type             X           Y           Z
 ---------------------------------------------------------------------
      1          1           0        0.000000    0.000000    0.437382
      2          1           0        0.000000    0.000000    1.562618
 ---------------------------------------------------------------------
 Stoichiometry    H2
 Framework group  D*H[C*(H.H)]
 Deg. of freedom     1
 Full point group                 D*H     NOp   8
 RotChk:  IX=0 Diff= 0.00D+00
 Largest Abelian subgroup         D2H     NOp   8
 Largest concise Abelian subgroup C2      NOp   2
                         Standard orientation:                         
 ---------------------------------------------------------------------
 Center     Atomic      Atomic             Coordinates (Angstroms)
 Number     Number       Type             X           Y           Z
 ---------------------------------------------------------------------
      1          1           0        0.000000    0.000000    0.562618
      2          1           0        0.000000    0.000000   -0.562618
 ---------------------------------------------------------------------
 Rotational constants (GHZ):           0.0000000         792.0917145         792.0917145
 Leave Link  202 at Tue Oct 28 15:59:01 2025, MaxMem=  2097152000 cpu:               1.0 elap:               0.3
 (Enter /home/pcmt/gaussian/g16.C.01/g16/l301.exe)
 Basis read from rwf:  (5D, 7F)
 No pseudopotential information found on rwf file.
 There are     4 symmetry adapted cartesian basis functions of AG  symmetry.
 There are     0 symmetry adapted cartesian basis functions of B1G symmetry.
 There are     1 symmetry adapted cartesian basis functions of B2G symmetry.
 There are     1 symmetry adapted cartesian basis functions of B3G symmetry.
 There are     0 symmetry adapted cartesian basis functions of AU  symmetry.
 There are     4 symmetry adapted cartesian basis functions of B1U symmetry.
 There are     1 symmetry adapted cartesian basis functions of B2U symmetry.
 There are     1 symmetry adapted cartesian basis functions of B3U symmetry.
 There are     4 symmetry adapted basis functions of AG  symmetry.
 There are     0 symmetry adapted basis functions of B1G symmetry.
 There are     1 symmetry adapted basis functions of B2G symmetry.
 There are     1 symmetry adapted basis functions of B3G symmetry.
 There are     0 symmetry adapted basis functions of AU  symmetry.
 There are     4 symmetry adapted basis functions of B1U symmetry.
 There are     1 symmetry adapted basis functions of B2U symmetry.
 There are     1 symmetry adapted basis functions of B3U symmetry.
    12 basis functions,    16 primitive gaussians,    12 cartesian basis functions
     1 alpha electrons        1 beta electrons
       nuclear repulsion energy         0.4702814430 Hartrees.
 IExCor= 1009 DFT=T Ex+Corr=PBE1PBE ExCW=0 ScaHFX=  0.250000
 ScaDFX=  0.750000  0.750000  1.000000  1.000000 ScalE2=  1.000000  1.000000
 IRadAn=      5 IRanWt=     -1 IRanGd=            0 ICorTp=0 IEmpDi=141
 NAtoms=    2 NActive=    2 NUniq=    1 SFac= 4.00D+00 NAtFMM=   60 NAOKFM=F Big=F
 Integral buffers will be    131072 words long.
 Raffenetti 2 integral format.
 Two-electron integral symmetry is turned on.
 R6Disp:  Grimme-D3(BJ) Dispersion energy=       -0.0001612200 Hartrees.
 Nuclear repulsion after empirical dispersion term =        0.4701202230 Hartrees.
 No density basis found on file    724.
 ------------------------------------------------------------------------------
 Polarizable Continuum Model (PCM)
 =================================
 Model                : C-PCM.
 Atomic radii         : Klamt.
 Polarization charges : Total charges.
 Charge compensation  : None.
 Solution method      : On-the-fly selection.
 Cavity type          : Scaled VdW (van der Waals Surface) (Alpha=1.100).
 Cavity algorithm     : GePol (No added spheres)
                        Default sphere list used, NSphG=    2.
                        Lebedev-Laikov grids with approx.  5.0 points / Ang**2.
                        Smoothing algorithm: York/Karplus (Gamma=1.0000).
                        Polarization charges: spherical gaussians, with
                                              point-specific exponents (IZeta= 3).
                        Self-potential: point-specific (ISelfS= 7).
                        Self-field    : sphere-specific E.n sum rule (ISelfD= 2).
 1st derivatives      : Analytical E(r).r(x)/FMM algorithm (CHGder, D1EAlg=3).
                        Cavity 1st derivative terms included.
 Solvent              : Water, Eps=  78.355300 Eps(inf)=   1.777849
 ------------------------------------------------------------------------------
 Spheres list:
 ISph  on   Nord     Re0    Alpha      Xe            Ye            Ze
    1   H      1    1.3000  1.000      0.000000      0.000000      0.562618
    2   H      2    1.3000  1.000      0.000000      0.000000     -0.562618
 ------------------------------------------------------------------------------
 GePol: Number of generator spheres                  =       2
 GePol: Total number of spheres                      =       2
 GePol: Number of exposed spheres                    =       2 (100.00%)
 GePol: Number of points                             =     170
 GePol: Average weight of points                     =       0.18
 GePol: Minimum weight of points                     =   0.43D-01
 GePol: Maximum weight of points                     =    0.21116
 GePol: Number of points with low weight             =       0
 GePol: Fraction of low-weight points (<1% of avg)   =       0.00%
 GePol: Cavity surface area                          =     30.471 Ang**2
 GePol: Cavity volume                                =     14.807 Ang**3
 Leave Link  301 at Tue Oct 28 15:59:01 2025, MaxMem=  2097152000 cpu:               0.5 elap:               0.2
 (Enter /home/pcmt/gaussian/g16.C.01/g16/l302.exe)
 NPDir=0 NMtPBC=     1 NCelOv=     1 NCel=       1 NClECP=     1 NCelD=      1
         NCelK=      1 NCelE2=     1 NClLst=     1 CellRange=     0.0.
 One-electron integrals computed using PRISM.
 One-electron integral symmetry used in STVInt
 NBasis=    12 RedAO= T EigKep=  4.89D-02  NBF=     4     0     1     1     0     4     1     1
 NBsUse=    12 1.00D-06 EigRej= -1.00D+00 NBFU=     4     0     1     1     0     4     1     1
 Precomputing XC quadrature grid using
 IXCGrd= 4 IRadAn=           5 IRanWt=          -1 IRanGd=           0 AccXCQ= 0.00D+00.
 Generated NRdTot=       0 NPtTot=           0 NUsed=           0 NTot=          32
 NSgBfM=    12    12    12    12    12 MxSgAt=     2 MxSgA2=     2.
 Leave Link  302 at Tue Oct 28 15:59:01 2025, MaxMem=  2097152000 cpu:               1.7 elap:               0.4
 (Enter /home/pcmt/gaussian/g16.C.01/g16/l303.exe)
 DipDrv:  MaxL=1.
 Leave Link  303 at Tue Oct 28 15:59:02 2025, MaxMem=  2097152000 cpu:               0.3 elap:               0.2
 (Enter /home/pcmt/gaussian/g16.C.01/g16/l401.exe)
 Initial guess from the checkpoint file:  "H2.pbe0-d3bj-cosmo.optg-freq.chk"
 B after Tr=    -0.000000    0.000000   -0.000000
         Rot=    1.000000    0.000000    0.000000    0.000000 Ang=   0.00 deg.
 Guess basis will be translated and rotated to current coordinates.
 JPrj=2 DoOrth=T DoCkMO=T.
 Initial guess orbital symmetries:
       Occupied  (SGG)
       Virtual   (SGU) (SGG) (SGU) (SGG) (PIU) (PIU) (PIG) (PIG)
                 (SGU) (SGG) (SGU)
 The electronic state of the initial guess is 1-SGG.
 Leave Link  401 at Tue Oct 28 15:59:02 2025, MaxMem=  2097152000 cpu:               1.7 elap:               0.5
 (Enter /home/pcmt/gaussian/g16.C.01/g16/l502.exe)
 Keep R1 ints in memory in symmetry-blocked form, NReq=6904681.
 FoFCou: FMM=F IPFlag=           0 FMFlag=           0 FMFlg1=           0
         NFxFlg=           0 DoJE=F BraDBF=F KetDBF=F FulRan=T
         wScrn=  0.000000 ICntrl=       600 IOpCl=  0 I1Cent=           0 NGrid=           0
         NMat0=    1 NMatS0=     78 NMatT0=    0 NMatD0=    1 NMtDS0=    0 NMtDT0=    0
 Petite list used in FoFCou.
 Closed shell SCF:
 Using DIIS extrapolation, IDIIS=  1040.
 NGot=  2097152000 LenX=  2097148871 LenY=  2097147989
 Requested convergence on RMS density matrix=1.00D-08 within 200 cycles.
 Requested convergence on MAX density matrix=1.00D-06.
 Requested convergence on             energy=1.00D-06.
 No special actions if energy rises.

 Cycle   1  Pass 1  IDiag  1:
 Inv3:  Mode=1 IEnd=       86700.
 Iteration    1 A*A^-1 deviation from unit magnitude is 2.11D-15 for    132.
 Iteration    1 A*A^-1 deviation from orthogonality  is 9.88D-16 for    132     46.
 Iteration    1 A^-1*A deviation from unit magnitude is 2.22D-15 for     86.
 Iteration    1 A^-1*A deviation from orthogonality  is 6.16D-16 for    136     50.
 E= -1.11469463305798    
 DIIS: error= 2.63D-02 at cycle   1 NSaved=   1.
 NSaved= 1 IEnMin= 1 EnMin= -1.11469463305798     IErMin= 1 ErrMin= 2.63D-02
 ErrMax= 2.63D-02  0.00D+00 EMaxC= 1.00D-01 BMatC= 3.81D-03 BMatP= 3.81D-03
 IDIUse=3 WtCom= 7.37D-01 WtEn= 2.63D-01
 Coeff-Com:  0.100D+01
 Coeff-En:   0.100D+01
 Coeff:      0.100D+01
 Gap=     0.465 Goal=   None    Shift=    0.000
 GapD=    0.465 DampG=2.000 DampE=0.500 DampFc=1.0000 IDamp=-1.
 RMSDP=5.28D-03 MaxDP=1.87D-02              OVMax= 6.13D-02

 Cycle   2  Pass 1  IDiag  1:
 E= -1.12066149330897     Delta-E=       -0.005966860251 Rises=F Damp=F
 DIIS: error= 2.47D-03 at cycle   2 NSaved=   2.
 NSaved= 2 IEnMin= 2 EnMin= -1.12066149330897     IErMin= 2 ErrMin= 2.47D-03
 ErrMax= 2.47D-03  0.00D+00 EMaxC= 1.00D-01 BMatC= 2.81D-05 BMatP= 3.81D-03
 IDIUse=3 WtCom= 9.75D-01 WtEn= 2.47D-02
 Coeff-Com:  0.541D-01 0.946D+00
 Coeff-En:   0.000D+00 0.100D+01
 Coeff:      0.528D-01 0.947D+00
 Gap=     0.371 Goal=   None    Shift=    0.000
[...]
 Forming Gx(P) for the SCF density, NAtomX=     2.
 Integral derivatives from FoFJK, PRISM(SPDF).
 Do as many integral derivatives as possible in FoFJK.
 G2DrvN: MDV=    2097151670.
 G2DrvN: will do     3 centers at a time, making    1 passes.
 PxScal for G2LodP:  IOpCl= 0 ISclPx=1 IMOff=     1 NMtTot=     4 NTT=      78 ScalPx= 1.12D+00
 Calling FoFCou, ICntrl=  3107 FMM=F I1Cent=   0 AccDes= 0.00D+00.
 FoFJK:  IHMeth= 1 ICntrl=    3107 DoSepK=F KAlg= 0 I1Cent=           0 FoldK=F
 IRaf=         0 NMat=       1 IRICut=       1 DoRegI=T DoRafI=F ISym2E= 1 IDoP0=0 IntGTp=1.
 FoFCou: FMM=F IPFlag=           0 FMFlag=      100000 FMFlg1=           0
         NFxFlg=           0 DoJE=F BraDBF=F KetDBF=F FulRan=T
         wScrn=  0.000000 ICntrl=      3107 IOpCl=  0 I1Cent=           0 NGrid=           0
         NMat0=    1 NMatS0=      1 NMatT0=    0 NMatD0=    4 NMtDS0=    3 NMtDT0=    0
 Petite list used in FoFCou.
 PxScal for G2LodP:  IOpCl= 0 ISclPx=0 IMOff=     1 NMtTot=     4 NTT=      78 ScalPx= 1.00D+00
 NEqPCM:  Using equilibrium solvation (IEInf=0, Eps=  78.3553, EpsInf=   1.7778)
 G2PCM: DoFxE=T DoFxN=T DoGrad=T DoDP/DQ/DG/TGxP=TFFF NFrqRd=   0 IEInf=0 SqF1=F DoCFld=F IF1Alg=4.
 GePol: Maximum number of non-zero 1st derivatives   =     109
 End of G2Drv F.D. properties file   721 does not exist.
 End of G2Drv F.D. properties file   722 does not exist.
 End of G2Drv F.D. properties file   788 does not exist.
 Leave Link 1110 at Tue Oct 28 15:59:19 2025, MaxMem=  2097152000 cpu:               6.6 elap:               1.2
 (Enter /home/pcmt/gaussian/g16.C.01/g16/l1002.exe)
 Minotr:  Closed shell wavefunction.
          IDoAtm=11
 NEqPCM:  Using equilibrium solvation (IEInf=0, Eps=  78.3553, EpsInf=   1.7778)
          Direct CPHF calculation.
          Differentiating once with respect to electric field.
                with respect to dipole field.
          Differentiating once with respect to nuclear coordinates.
          Using symmetry in CPHF.
          Requested convergence is 1.0D-08 RMS, and 1.0D-07 maximum.
          Secondary convergence is 1.0D-12 RMS, and 1.0D-12 maximum.
          NewPWx=T KeepS1=F KeepF1=F KeepIn=T MapXYZ=F SortEE=F KeepMc=T.
          583 words used for storage of precomputed grid.
 Keep R1 ints in memory in symmetry-blocked form, NReq=6878652.
 FoFCou: FMM=F IPFlag=           0 FMFlag=           0 FMFlg1=           0
         NFxFlg=           0 DoJE=F BraDBF=F KetDBF=F FulRan=T
         wScrn=  0.000000 ICntrl=       600 IOpCl=  0 I1Cent=           0 NGrid=           0
         NMat0=    1 NMatS0=     78 NMatT0=    0 NMatD0=    1 NMtDS0=    0 NMtDT0=    0
 Petite list used in FoFCou.
          MDV=    2097152000 using IRadAn=       1.
          Solving linear equations simultaneously, MaxMat=       0.
          There are     6 degrees of freedom in the 1st order CPHF.  IDoFFX=4 NUNeed=     6.
 Will reuse    3 saved solutions.
      3 vectors produced by pass  0 Test12= 1.83D-16 1.67D-08 XBig12= 2.15D-02 1.30D-01.
 AX will form     3 AO Fock derivatives at one time.
      1 vectors produced by pass  1 Test12= 1.83D-16 1.67D-08 XBig12= 6.26D-05 7.40D-03.
      1 vectors produced by pass  2 Test12= 1.83D-16 1.67D-08 XBig12= 9.18D-09 9.10D-05.
 InvSVY:  IOpt=1 It=  1 EMax= 2.22D-16
 Solved reduced A of dimension     5 with     3 vectors.
 FullF1:  Do perturbations      1 to       6.
 Isotropic polarizability for W=    0.000000        3.53 Bohr**3.
 FullF1:  Do perturbations      1 to       6.
 End of Minotr F.D. properties file   721 does not exist.
 End of Minotr F.D. properties file   722 does not exist.
 End of Minotr F.D. properties file   788 does not exist.
 Leave Link 1002 at Tue Oct 28 15:59:20 2025, MaxMem=  2097152000 cpu:               5.1 elap:               1.0
 (Enter /home/pcmt/gaussian/g16.C.01/g16/l601.exe)
 Copying SCF densities to generalized density rwf, IOpCl= 0 IROHF=0.

 **********************************************************************

            Population analysis using the SCF Density.

 **********************************************************************

 Orbital symmetries:
       Occupied  (SGG)
       Virtual   (SGU) (SGG) (SGU) (PIU) (PIU) (SGG) (PIG) (PIG)
                 (SGU) (SGG) (SGU)
 The electronic state is 1-SGG.
 Alpha  occ. eigenvalues --   -0.43460
 Alpha virt. eigenvalues --    0.08029   0.21896   0.49350   1.18188   1.18188
 Alpha virt. eigenvalues --    1.64452   1.96058   1.96058   2.04055   2.45476
 Alpha virt. eigenvalues --    3.45532
          Condensed to atoms (all electrons):
               1          2
     1  H    0.585089   0.414911
     2  H    0.414911   0.585089
 Mulliken charges:
               1
     1  H   -0.000000
     2  H   -0.000000
 Sum of Mulliken charges =  -0.00000
 Mulliken charges with hydrogens summed into heavy atoms:
               1
 APT charges:
               1
     1  H    0.000000
     2  H    0.000000
 Sum of APT charges =   0.00000
 APT charges with hydrogens summed into heavy atoms:
               1
 Electronic spatial extent (au):  <R**2>=              5.2352
 Charge=             -0.0000 electrons
 Dipole moment (field-independent basis, Debye):
    X=             -0.0000    Y=              0.0000    Z=              0.0000  Tot=              0.0000
 Quadrupole moment (field-independent basis, Debye-Ang):
   XX=             -2.0885   YY=             -2.0885   ZZ=             -1.5258
   XY=             -0.0000   XZ=             -0.0000   YZ=              0.0000
 Traceless Quadrupole moment (field-independent basis, Debye-Ang):
   XX=             -0.1876   YY=             -0.1876   ZZ=              0.3752
   XY=             -0.0000   XZ=             -0.0000   YZ=              0.0000
 Octapole moment (field-independent basis, Debye-Ang**2):
  XXX=             -0.0000  YYY=              0.0000  ZZZ=              0.0000  XYY=             -0.0000
  XXY=              0.0000  XXZ=              0.0000  XZZ=             -0.0000  YZZ=             -0.0000
  YYZ=              0.0000  XYZ=              0.0000
 Hexadecapole moment (field-independent basis, Debye-Ang**3):
 XXXX=             -2.1181 YYYY=             -2.1181 ZZZZ=             -3.0147 XXXY=             -0.0000
 XXXZ=              0.0000 YYYX=             -0.0000 YYYZ=              0.0000 ZZZX=              0.0000
 ZZZY=              0.0000 XXYY=             -0.7060 XXZZ=             -0.8721 YYZZ=             -0.8721
 XXYZ=              0.0000 YYXZ=              0.0000 ZZXY=             -0.0000
 N-N= 7.087040234044D-01 E-N=-3.626940236415D+00  KE= 1.129586891468D+00
 Symmetry AG   KE= 1.129586891468D+00
 Symmetry B1G  KE= 0.000000000000D+00
 Symmetry B2G  KE= 2.900652593992D-34
 Symmetry B3G  KE= 2.900652593992D-34
 Symmetry AU   KE= 0.000000000000D+00
 Symmetry B1U  KE= 1.342208456763D-32
 Symmetry B2U  KE= 6.339333546778D-35
 Symmetry B3U  KE= 6.339333546778D-35
  Exact polarizability:       1.058      -0.000       1.058      -0.000      -0.000       8.470
 Approx polarizability:       1.042      -0.000       1.042      -0.000      -0.000       7.777
 No NMR shielding tensors so no spin-rotation constants.
 Leave Link  601 at Tue Oct 28 15:59:20 2025, MaxMem=  2097152000 cpu:               0.9 elap:               0.3
 (Enter /home/pcmt/gaussian/g16.C.01/g16/l701.exe)
 ... and contract with generalized density number  0.
 Compute integral second derivatives.
 R6Disp: Adding Grimme-D3(BJ) dispersion energy 2nd derivatives to the Hessian.
 D2PCM: C-PCM CHGder 2nd derivatives, FixD1E=F FixD2E=F DoIter=F DoCFld=F I1PDM=0
 GePol: Maximum number of non-zero 2nd derivatives   =     109
 Leave Link  701 at Tue Oct 28 15:59:21 2025, MaxMem=  2097152000 cpu:               2.0 elap:               0.6
 (Enter /home/pcmt/gaussian/g16.C.01/g16/l702.exe)
 L702 exits ... SP integral derivatives will be done elsewhere.
 Leave Link  702 at Tue Oct 28 15:59:21 2025, MaxMem=  2097152000 cpu:               0.2 elap:               0.1
 (Enter /home/pcmt/gaussian/g16.C.01/g16/l703.exe)
 Integral derivatives from FoFJK, PRISM(SPDF).
 Compute integral second derivatives, UseDBF=F ICtDFT=           0.
 Calling FoFJK, ICntrl=    100127 FMM=F ISym2X=1 I1Cent= 0 IOpClX= 0 NMat=1 NMatS=1 NMatT=0.
 FoFJK:  IHMeth= 1 ICntrl=  100127 DoSepK=F KAlg= 0 I1Cent=           0 FoldK=F
 IRaf=         0 NMat=       1 IRICut=       1 DoRegI=T DoRafI=F ISym2E= 1 IDoP0=0 IntGTp=1.
 FoFCou: FMM=F IPFlag=           0 FMFlag=      100000 FMFlg1=         800
         NFxFlg=           0 DoJE=F BraDBF=F KetDBF=F FulRan=T
         wScrn=  0.000000 ICntrl=    100127 IOpCl=  0 I1Cent=           0 NGrid=           0
         NMat0=    1 NMatS0=      1 NMatT0=    0 NMatD0=    1 NMtDS0=    0 NMtDT0=    0
 Petite list used in FoFCou.
 Leave Link  703 at Tue Oct 28 15:59:21 2025, MaxMem=  2097152000 cpu:               0.8 elap:               0.2
 (Enter /home/pcmt/gaussian/g16.C.01/g16/l716.exe)
 Dipole        =-3.69778549D-32 1.20370622D-35 2.48784693D-17
 Polarizability= 1.05842809D+00-6.72137644D-19 1.05842809D+00
                -5.04348449D-16-6.65621048D-18 8.46989970D+00
 HyperPolar    =-3.99526128D-17-9.19961301D-18-1.39882881D-17
                -3.85823783D-17-1.90285738D-13 5.62464862D-18
                -1.99031543D-13 6.24919289D-17-1.95016192D-15
                -2.44381814D-11
 Full mass-weighted force constant matrix:
 Low frequencies ---  -81.0429  -81.0429   -0.0001   -0.0001   -0.0001 4404.1081
 Diagonal vibrational polarizability:
        0.0000000       0.0000000       0.0000000
 Diagonal vibrational hyperpolarizability:
        0.0000000      -0.0000000      -0.0000000
 Harmonic frequencies (cm**-1), IR intensities (KM/Mole), Raman scattering
 activities (A**4/AMU), depolarization ratios for plane and unpolarized
 incident light, reduced masses (AMU), force constants (mDyne/A),
 and normal coordinates:
                      1
                     SGG
 Frequencies --   4404.1081
 Red. masses --      1.0078
 Frc consts  --     11.5173
 IR Inten    --      0.0000
 Raman Activ --    192.1006
 Depolar (P) --      0.3051
 Depolar (U) --      0.4675
  Atom  AN      X      Y      Z
     1   1    -0.00   0.00   0.71
     2   1     0.00   0.00  -0.71

 -------------------
 - Thermochemistry -
 -------------------
 Temperature   298.150 Kelvin.  Pressure   1.00000 Atm.
 Atom     1 has atomic number  1 and mass   1.00783
 Atom     2 has atomic number  1 and mass   1.00783
 Molecular mass:     2.01565 amu.
 Principal axes and moments of inertia in atomic units:
                           1         2         3
     Eigenvalues --     0.00000   1.00309   1.00309
           X           -0.00000   1.00000   0.00000
           Y            0.00000   0.00000   1.00000
           Z            1.00000   0.00000  -0.00000
 This molecule is a prolate symmetric top.
 Rotational symmetry number  2.
 Rotational temperature (Kelvin)     86.34694
 Rotational constant (GHZ):        1799.178231
 Zero-point vibrational energy      26342.4 (Joules/Mol)
                                    6.29599 (Kcal/Mol)
 Vibrational temperatures:   6336.53
          (Kelvin)
 
 Zero-point correction=                           0.010033 (Hartree/Particle)
 Thermal correction to Energy=                    0.012394
 Thermal correction to Enthalpy=                  0.013338
 Thermal correction to Gibbs Free Energy=        -0.001464
 Sum of electronic and zero-point Energies=             -1.158588
 Sum of electronic and thermal Energies=                -1.156228
 Sum of electronic and thermal Enthalpies=              -1.155283
 Sum of electronic and thermal Free Energies=           -1.170085
 
                     E (Thermal)             CV                S
                      KCal/Mol        Cal/Mol-Kelvin    Cal/Mol-Kelvin
 Total                    7.777              4.968             31.153
 Electronic               0.000              0.000              0.000
 Translational            0.889              2.981             28.080
 Rotational               0.592              1.987              3.072
 Vibrational              6.296              0.000              0.000
                       Q            Log10(Q)             Ln(Q)
 Total Bot       0.471240D+01          0.673243          1.550198
 Total V=0       0.194193D+06          5.288234         12.176610
 Vib (Bot)       0.242666D-04         -4.614992        -10.626412
 Vib (V=0)       0.100000D+01          0.000000          0.000000
 Electronic      0.100000D+01          0.000000          0.000000
 Translational   0.112480D+06          5.051077         11.630534
 Rotational      0.172647D+01          0.237158          0.546076
                           ----------------------------
                           ! Normal Mode     1        !
 --------------------------                            --------------------------
 ! Name  Definition              Value          Relative Weight (%)             !
 --------------------------------------------------------------------------------
 ! R1    R(1,2)                  1.4142                100.0                    !
 --------------------------------------------------------------------------------
 Max01P=      1 Av01P=    1.00 Stan. Dev.=    0.00
 Max05P=      1 Av05P=    1.00 Stan. Dev.=    0.00
 Max10P=      1 Av10P=    1.00 Stan. Dev.=    0.00
 MaxNDP=      1 AvNDP=    1.00 Stan. Dev.=    0.00
 ***** Axes restored to original set *****
 -------------------------------------------------------------------
 Center     Atomic                   Forces (Hartrees/Bohr)
 Number     Number              X              Y              Z
 -------------------------------------------------------------------
      1        1           0.000000000   -0.000000000   -0.000254029
      2        1          -0.000000000    0.000000000    0.000254029
 -------------------------------------------------------------------
 Cartesian Forces:  Max     0.000254029 RMS     0.000146664
 Force constants in Cartesian coordinates: 
                1             2             3             4             5 
      1 -0.125250D-03
      2  0.000000D+00 -0.125250D-03
      3  0.000000D+00  0.000000D+00  0.369881D+00
      4  0.125250D-03  0.000000D+00  0.000000D+00 -0.125250D-03
      5  0.000000D+00  0.125250D-03  0.000000D+00  0.000000D+00 -0.125250D-03
      6  0.000000D+00  0.000000D+00 -0.369881D+00  0.000000D+00  0.000000D+00
                6 
      6  0.369881D+00
 FormGI is forming the generalized inverse of G from B-inverse, IUseBI=4.
 Force constants in internal coordinates: 
                1 
      1  0.369881D+00
 Leave Link  716 at Tue Oct 28 15:59:21 2025, MaxMem=  2097152000 cpu:               0.3 elap:               0.1
 (Enter /home/pcmt/gaussian/g16.C.01/g16/l103.exe)

 GradGradGradGradGradGradGradGradGradGradGradGradGradGradGradGradGradGrad
 Berny optimization.
 Red2BG is reusing G-inverse.
 Internal  Forces:  Max     0.000254029 RMS     0.000254029
 Search for a local minimum.
 Step number   1 out of a maximum of    2
 All quantities printed in internal units (Hartrees-Bohrs-Radians)
 Second derivative matrix not updated -- analytic derivatives used.
 The second derivative matrix:
                          R1
           R1           0.36988
 ITU=  0
     Eigenvalues ---    0.36988
 Angle between quadratic step and forces=   0.00 degrees.
 Linear search not attempted -- first point.
 Iteration  1 RMS(Cart)=  0.00048563 RMS(Int)=  0.00000000
 Iteration  2 RMS(Cart)=  0.00000000 RMS(Int)=  0.00000000
 ITry= 1 IFail=0 DXMaxC= 3.43D-04 DCOld= 1.00D+10 DXMaxT= 3.00D-01 DXLimC= 3.00D+00 Rises=F
 ClnCor:  largest displacement from symmetrization is 4.44D-16 for atom     2.
 Variable       Old X    -DE/DX   Delta X   Delta X   Delta X     New X
                                 (Linear)    (Quad)   (Total)
    R1        1.41089   0.00025   0.00000   0.00069   0.00069   1.41158
         Item               Value     Threshold  Converged?
 Maximum Force            0.000254     0.000450     YES
 RMS     Force            0.000254     0.000300     YES
 Maximum Displacement     0.000343     0.001800     YES
 RMS     Displacement     0.000486     0.001200     YES
 Predicted change in Energy=-8.723175D-08
 Optimization completed.
    -- Stationary point found.
                           ----------------------------
                           !   Optimized Parameters   !
                           ! (Angstroms and Degrees)  !
 --------------------------                            --------------------------
 ! Name  Definition              Value          Derivative Info.                !
 --------------------------------------------------------------------------------
 ! R1    R(1,2)                  0.7466         -DE/DX =    0.0003              !
 --------------------------------------------------------------------------------
 GradGradGradGradGradGradGradGradGradGradGradGradGradGradGradGradGradGrad

 Leave Link  103 at Tue Oct 28 15:59:21 2025, MaxMem=  2097152000 cpu:               0.1 elap:               0.1
 (Enter /home/pcmt/gaussian/g16.C.01/g16/l9999.exe)
 Dipole is zero, so no output in dipole orientation.

 ----------------------------------------------------------------------

 Electric dipole moment (input orientation):
 (Debye = 10**-18 statcoulomb cm , SI units = C m)
                  (au)            (Debye)         (10**-30 SI)
   Tot        0.000000D+00      0.000000D+00      0.000000D+00
   x          0.000000D+00      0.000000D+00      0.000000D+00
   y          0.000000D+00      0.000000D+00      0.000000D+00
   z          0.000000D+00      0.000000D+00      0.000000D+00

 Dipole polarizability, Alpha (input orientation).
 (esu units = cm**3 , SI units = C**2 m**2 J**-1)
 Alpha(0;0):
               (au)            (10**-24 esu)      (10**-40 SI)
   iso        0.352892D+01      0.522932D+00      0.581840D+00
   aniso      0.741147D+01      0.109827D+01      0.122199D+01
   xx         0.105843D+01      0.156843D+00      0.174511D+00
   yx         0.000000D+00      0.000000D+00      0.000000D+00
   yy         0.105843D+01      0.156843D+00      0.174511D+00
   zx         0.000000D+00      0.000000D+00      0.000000D+00
   zy         0.000000D+00      0.000000D+00      0.000000D+00
   zz         0.846990D+01      0.125511D+01      0.139650D+01

 ----------------------------------------------------------------------

 Test job not archived.
 1\1\GINC-U-0-11\Freq\RPBE1PBE\Gen\H2\ROOT\28-Oct-2025\0\\#P Geom=AllCh
 eck Guess=TCheck SCRF=Check Test GenChk RPBE1PBE/ChkBas Freq\\HClO4.pb
 e0-d3bj-cosmo.optg-freq.chk\\0,1\H,0.,0.,0.6266948885\H,0.,0.,1.373305
 1115\\Version=ES64L-G16RevC.01\State=1-SGG\HF=-1.1686213\RMSD=0.000e+0
 0\RMSF=1.467e-04\ZeroPoint=0.0100333\Thermal=0.0123938\ETot=-1.1562276
 \HTot=-1.1552834\GTot=-1.170085\Dipole=0.,0.,0.\DipoleDeriv=0.,0.,0.,0
 .,0.,0.,0.,0.,0.,0.,0.,0.,0.,0.,0.,0.,0.,0.\Polar=1.0584281,0.,1.05842
 81,0.,0.,8.4698997\PolarDeriv=0.,0.,0.,-5.2538828,0.,0.,0.,0.,0.,0.,-5
 .2538828,0.,-0.261895,0.,-0.261895,0.,0.,-10.0697208,0.,0.,0.,5.253882
 8,0.,0.,0.,0.,0.,0.,5.2538828,0.,0.261895,0.,0.261895,0.,0.,10.0697208
 \HyperPolar=0.,0.,0.,0.,0.,0.,0.,0.,0.,0.\Quadrupole=-0.1394669,-0.139
 4669,0.2789337,0.,0.,0.\PG=D*H [C*(H1.H1)]\NImag=0\\-0.00012525,0.,-0.
 00012525,0.,0.,0.36988143,0.00012525,0.,0.,-0.00012525,0.,0.00012525,0
 .,0.,-0.00012525,0.,0.,-0.36988143,0.,0.,0.36988143\\0.,0.,0.00025403,
 0.,0.,-0.00025403\\\@


 SCIENCE IS A VERY HUMAN FORM OF KNOWLEDGE.
 WE ARE ALWAYS AT THE BRINK OF THE KNOWN,
 WE ALWAYS FEEL FORWARD FOR WHAT IS HOPED.
 EVERY JUDGEMENT IN SCIENCE STANDS ON THE EDGE OF ERROR, AND IS PERSONAL.
 SCIENCE IS A TRIBUTE TO WHAT WE CAN KNOW ALTHOUGH WE ARE FALLIBLE.

                     -- J. BRONOWSKI
 Job cpu time:       0 days  0 hours  0 minutes 25.8 seconds.
 Elapsed time:       0 days  0 hours  0 minutes  6.6 seconds.
 File lengths (MBytes):  RWF=      6 Int=      0 D2E=      0 Chk=      2 Scr=      1
 Normal termination of Gaussian 16 at Tue Oct 28 15:59:21 2025.
