 Entering Gaussian System, Link 0=/home/pcmt/gaussian/g16.C.01/g16/g16
 Initial command:
 /home/pcmt/gaussian/g16.C.01/g16/l1.exe "/state/partition2/vallet/1080480.phlam-s-sakura/Gau-39961.inp" -scrdir="/state/partition2/vallet/1080480.phlam-s-sakura/"
 Entering Link 1 = /home/pcmt/gaussian/g16.C.01/g16/l1.exe PID=     39962.
  
 Copyright (c) 1988-2019, Gaussian, Inc.  All Rights Reserved.
  
 This is part of the Gaussian(R) 16 program.  It is based on
 the Gaussian(R) 09 system (copyright 2009, Gaussian, Inc.),
 the Gaussian(R) 03 system (copyright 2003, Gaussian, Inc.),
 the Gaussian(R) 98 system (copyright 1998, Gaussian, Inc.),
 the Gaussian(R) 94 system (copyright 1995, Gaussian, Inc.),
 the Gaussian 92(TM) system (copyright 1992, Gaussian, Inc.),
 the Gaussian 90(TM) system (copyright 1990, Gaussian, Inc.),
 the Gaussian 88(TM) system (copyright 1988, Gaussian, Inc.),
 the Gaussian 86(TM) system (copyright 1986, Carnegie Mellon
 University), and the Gaussian 82(TM) system (copyright 1983,
 Carnegie Mellon University). Gaussian is a federally registered
 trademark of Gaussian, Inc.
  
 This software contains proprietary and confidential information,
 including trade secrets, belonging to Gaussian, Inc.
  
 This software is provided under written license and may be
 used, copied, transmitted, or stored only in accord with that
 written license.
  
 The following legend is applicable only to US Government
 contracts under FAR:
  
                    RESTRICTED RIGHTS LEGEND
  
 Use, reproduction and disclosure by the US Government is
 subject to restrictions as set forth in subparagraphs (a)
 and (c) of the Commercial Computer Software - Restricted
 Rights clause in FAR 52.227-19.
  
 Gaussian, Inc.
 340 Quinnipiac St., Bldg. 40, Wallingford CT 06492
  
  
 ---------------------------------------------------------------
 Warning -- This program may not be used in any manner that
 competes with the business of Gaussian, Inc. or will provide
 assistance to any competitor of Gaussian, Inc.  The licensee
 of this program is prohibited from giving any competitor of
 Gaussian, Inc. access to this program.  By using this program,
 the user acknowledges that Gaussian, Inc. is engaged in the
 business of creating and licensing software in the field of
 computational chemistry and represents and warrants to the
 licensee that it is not a competitor of Gaussian, Inc. and that
 it will not use this program in any manner prohibited above.
 ---------------------------------------------------------------
  

 Cite this work as:
 Gaussian 16, Revision C.01,
 M. J. Frisch, G. W. Trucks, H. B. Schlegel, G. E. Scuseria, 
 M. A. Robb, J. R. Cheeseman, G. Scalmani, V. Barone, 
 G. A. Petersson, H. Nakatsuji, X. Li, M. Caricato, A. V. Marenich, 
 J. Bloino, B. G. Janesko, R. Gomperts, B. Mennucci, H. P. Hratchian, 
 J. V. Ortiz, A. F. Izmaylov, J. L. Sonnenberg, D. Williams-Young, 
 F. Ding, F. Lipparini, F. Egidi, J. Goings, B. Peng, A. Petrone, 
 T. Henderson, D. Ranasinghe, V. G. Zakrzewski, J. Gao, N. Rega, 
 G. Zheng, W. Liang, M. Hada, M. Ehara, K. Toyota, R. Fukuda, 
 J. Hasegawa, M. Ishida, T. Nakajima, Y. Honda, O. Kitao, H. Nakai, 
 T. Vreven, K. Throssell, J. A. Montgomery, Jr., J. E. Peralta, 
 F. Ogliaro, M. J. Bearpark, J. J. Heyd, E. N. Brothers, K. N. Kudin, 
 V. N. Staroverov, T. A. Keith, R. Kobayashi, J. Normand, 
 K. Raghavachari, A. P. Rendell, J. C. Burant, S. S. Iyengar, 
 J. Tomasi, M. Cossi, J. M. Millam, M. Klene, C. Adamo, R. Cammi, 
 J. W. Ochterski, R. L. Martin, K. Morokuma, O. Farkas, 
 J. B. Foresman, and D. J. Fox, Gaussian, Inc., Wallingford CT, 2019.
 
 ******************************************
 Gaussian 16:  ES64L-G16RevC.01  3-Jul-2019
                15-Nov-2025 
 ******************************************
 %mem=8000Mb
 %NProc=4
 Will use up to    4 processors via shared memory.
 %oldchk=DMSO.pbe0-d3bj-cosmo.optg-freq.chk
 %chk=DMSO.pbe0-d3bj-gp.sp.chk
 Copying data from "DMSO.pbe0-d3bj-cosmo.optg-freq.chk" to current chk file "DMSO.pbe0-d3bj-gp.sp.chk"
 IOpt=  2 FromEx=T IUOpen= 4 IOptOp= 5 NList=   0 IFRang= 0 IUIn= 4 IUOut= 2.
 ----------------------------------------------------------------------
 #p PBE1PBE/GEN GFInput GFOldPrint 5D 7F IOP(4/69=2, 6/7=3) EmpiricalDi
 spersion=GD3BJ Scf=(NoVarAcc,MaxCycle=200,conver=8) Integral=(Grid=Ult
 raFine) Guess=CheckPoint Geom=CheckPoint Symm=Loose
 ----------------------------------------------------------------------
 1/29=2,38=1,172=1/1;
 2/12=2,17=4,18=3,40=1/2;
 3/5=7,8=11,11=2,14=-4,24=11,25=1,30=1,74=-13,75=-5,116=-2,124=41/1,2,3;
 4/5=1,69=2/1;
 5/5=2,6=8,7=200,38=6/2;
 6/7=3,8=2,9=2,10=2,28=1/1;
 99/5=1,9=1/99;
 Leave Link    1 at Sat Nov 15 13:11:00 2025, MaxMem=  1048576000 cpu:               0.5 elap:               0.1
 (Enter /home/pcmt/gaussian/g16.C.01/g16/l101.exe)
 ----------------------------------
 DMSO.pbe0-d3bj-cosmo.optg-freq.chk
 ----------------------------------
 Structure from the checkpoint file:  "DMSO.pbe0-d3bj-gp.sp.chk"
 Charge =  0 Multiplicity = 1
 Redundant internal coordinates found in file.  (old form).
 O,0,0.0000000012,-0.2670228392,0.1354696983
 S,0,0.,-0.7935245656,1.5427762489
 C,0,1.3436564157,0.0214031708,2.3925283413
 C,0,-1.3436564173,0.0214031704,2.392528339
 H,0,1.3123577425,-0.2598371732,3.4463599964
 H,0,2.270465825,-0.3323671909,1.9408254609
 H,0,1.240727938,1.1010748937,2.2711642336
 H,0,-1.3123577459,-0.2598371735,3.4463599942
 H,0,-1.2407279397,1.1010748933,2.2711642315
 H,0,-2.2704658257,-0.3323671915,1.940825457
 Recover connectivity data from disk.
 ITRead=  0  0  0  0  0  0  0  0  0  0
 MicOpt= -1 -1 -1 -1 -1 -1 -1 -1 -1 -1
                           ----------------------------
                           !    Current Parameters    !
                           ! (Angstroms and Degrees)  !
 --------------------------                            --------------------------
 ! Name  Definition              Value                                          !
 --------------------------------------------------------------------------------
 ! R1    R(1,2)                  1.5026                                         !
 ! R2    R(2,3)                  1.7865                                         !
 ! R3    R(2,4)                  1.7865                                         !
 ! R4    R(3,5)                  1.0912                                         !
 ! R5    R(3,6)                  1.09                                           !
 ! R6    R(3,7)                  1.0913                                         !
 ! R7    R(4,8)                  1.0912                                         !
 ! R8    R(4,9)                  1.0913                                         !
 ! R9    R(4,10)                 1.09                                           !
 ! A1    A(1,2,3)              106.5981                                         !
 ! A2    A(1,2,4)              106.5981                                         !
 ! A3    A(3,2,4)               97.5478                                         !
 ! A4    A(2,3,5)              108.677                                          !
 ! A5    A(2,3,6)              107.118                                          !
 ! A6    A(2,3,7)              109.1142                                         !
 ! A7    A(5,3,6)              109.9351                                         !
 ! A8    A(5,3,7)              111.0809                                         !
 ! A9    A(6,3,7)              110.8051                                         !
 ! A10   A(2,4,8)              108.677                                          !
 ! A11   A(2,4,9)              109.1142                                         !
 ! A12   A(2,4,10)             107.118                                          !
 ! A13   A(8,4,9)              111.0809                                         !
 ! A14   A(8,4,10)             109.9351                                         !
 ! A15   A(9,4,10)             110.8051                                         !
 ! D1    D(1,2,3,5)            174.3108                                         !
 ! D2    D(1,2,3,6)            -66.9581                                         !
 ! D3    D(1,2,3,7)             53.0468                                         !
 ! D4    D(4,2,3,5)             64.4232                                         !
 ! D5    D(4,2,3,6)           -176.8457                                         !
 ! D6    D(4,2,3,7)            -56.8408                                         !
 ! D7    D(1,2,4,8)           -174.3108                                         !
 ! D8    D(1,2,4,9)            -53.0468                                         !
 ! D9    D(1,2,4,10)            66.9581                                         !
 ! D10   D(3,2,4,8)            -64.4232                                         !
 ! D11   D(3,2,4,9)             56.8408                                         !
 ! D12   D(3,2,4,10)           176.8457                                         !
 --------------------------------------------------------------------------------
 NAtoms=     10 NQM=       10 NQMF=       0 NMMI=      0 NMMIF=      0
                NMic=       0 NMicF=      0.
                    Isotopes and Nuclear Properties:
 (Nuclear quadrupole moments (NQMom) in fm**2, nuclear magnetic moments (NMagM)
  in nuclear magnetons)

  Atom         1           2           3           4           5           6           7           8           9          10
 IAtWgt=          16          32          12          12           1           1           1           1           1           1
 AtmWgt=  15.9949146  31.9720718  12.0000000  12.0000000   1.0078250   1.0078250   1.0078250   1.0078250   1.0078250   1.0078250
 NucSpn=           0           0           0           0           1           1           1           1           1           1
 AtZEff=   5.6000000  13.6000000   3.6000000   3.6000000   1.0000000   1.0000000   1.0000000   1.0000000   1.0000000   1.0000000
 NQMom=    0.0000000   0.0000000   0.0000000   0.0000000   0.0000000   0.0000000   0.0000000   0.0000000   0.0000000   0.0000000
 NMagM=    0.0000000   0.0000000   0.0000000   0.0000000   2.7928460   2.7928460   2.7928460   2.7928460   2.7928460   2.7928460
 AtZNuc=   8.0000000  16.0000000   6.0000000   6.0000000   1.0000000   1.0000000   1.0000000   1.0000000   1.0000000   1.0000000
 Leave Link  101 at Sat Nov 15 13:11:00 2025, MaxMem=  1048576000 cpu:               0.8 elap:               0.3
 (Enter /home/pcmt/gaussian/g16.C.01/g16/l202.exe)
                          Input orientation:                          
 ---------------------------------------------------------------------
 Center     Atomic      Atomic             Coordinates (Angstroms)
 Number     Number       Type             X           Y           Z
 ---------------------------------------------------------------------
      1          8           0        0.000000   -0.267023    0.135470
      2         16           0        0.000000   -0.793525    1.542776
      3          6           0        1.343656    0.021403    2.392528
      4          6           0       -1.343656    0.021403    2.392528
      5          1           0        1.312358   -0.259837    3.446360
      6          1           0        2.270466   -0.332367    1.940825
      7          1           0        1.240728    1.101075    2.271164
      8          1           0       -1.312358   -0.259837    3.446360
      9          1           0       -1.240728    1.101075    2.271164
     10          1           0       -2.270466   -0.332367    1.940825
 ---------------------------------------------------------------------
                    Distance matrix (angstroms):
                    1          2          3          4          5
     1  O    0.000000
     2  S    1.502570   0.000000
     3  C    2.642521   1.786505   0.000000
     4  C    2.642521   1.786505   2.687313   0.000000
     5  H    3.561507   2.372917   1.091163   2.871249   0.000000
     6  H    2.901481   2.350771   1.090030   3.659381   1.786020
     7  H    2.823524   2.378962   1.091336   2.803473   1.799527
     8  H    3.561507   2.372917   2.871249   1.091163   2.624715
     9  H    2.823524   2.378962   2.803473   1.091336   3.122725
    10  H    2.901481   2.350771   3.659381   1.090030   3.886968
                    6          7          8          9         10
     6  H    0.000000
     7  H    1.795617   0.000000
     8  H    3.886968   3.122725   0.000000
     9  H    3.806883   2.481456   1.799527   0.000000
    10  H    4.540932   3.806883   1.786020   1.795617   0.000000
 Stoichiometry    C2H6OS
 Framework group  CS[SG(OS),X(C2H6)]
 Deg. of freedom    13
 Full point group                 CS      NOp   2
 RotChk:  IX=2 Diff= 1.86D-15
 Largest Abelian subgroup         CS      NOp   2
 Largest concise Abelian subgroup CS      NOp   2
                         Standard orientation:                         
 ---------------------------------------------------------------------
 Center     Atomic      Atomic             Coordinates (Angstroms)
 Number     Number       Type             X           Y           Z
 ---------------------------------------------------------------------
      1          8           0        1.096727    1.062996    0.000000
      2         16           0       -0.257357    0.411709    0.000000
      3          6           0       -0.257357   -0.765655   -1.343656
      4          6           0       -0.257357   -0.765655    1.343656
      5          1           0       -1.189763   -1.331584   -1.312358
      6          1           0       -0.200036   -0.194775   -2.270466
      7          1           0        0.605890   -1.425370   -1.240728
      8          1           0       -1.189763   -1.331584    1.312358
      9          1           0        0.605890   -1.425370    1.240728
     10          1           0       -0.200036   -0.194775    2.270466
 ---------------------------------------------------------------------
 Rotational constants (GHZ):           7.0722341           6.9466574           4.2362645
 Leave Link  202 at Sat Nov 15 13:11:00 2025, MaxMem=  1048576000 cpu:               0.1 elap:               0.1
 (Enter /home/pcmt/gaussian/g16.C.01/g16/l301.exe)
 General basis read from cards:  (5D, 7F)
 Centers:       2
 Def2TZVP
 ****
 Centers:       1
 Def2TZVP
 ****
 Centers:       3      4
 Def2TZVP
 ****
 Centers:       5      6      7      8      9     10
 Def2TZVP
 ****
 Ernie: Thresh=  0.10000D-02 Tol=  0.10000D-05 Strict=F.
 AO basis set in the form of general basis input (Overlap normalization):
      1 0
 S   6 1.00       0.000000000000
      0.2703238263D+05  0.5722733521D-03
      0.4052387139D+04  0.4435323349D-02
      0.9223272271D+03  0.2302010771D-01
      0.2612407099D+03  0.9282249067D-01
      0.8535464135D+02  0.2937850001D+00
      0.3103503524D+02  0.6740160450D+00
 S   2 1.00       0.000000000000
      0.1226086073D+02  0.6383993703D+00
      0.4998707601D+01  0.3953458713D+00
 S   1 1.00       0.000000000000
      0.1170310816D+01  0.1000000000D+01
 S   1 1.00       0.000000000000
      0.4647474099D+00  0.1000000000D+01
 S   1 1.00       0.000000000000
      0.1850453636D+00  0.1000000000D+01
 P   4 1.00       0.000000000000
      0.6327495480D+02  0.1201833222D-01
      0.1462704938D+02  0.8300542179D-01
      0.4450122346D+01  0.3199174393D+00
      0.1527579965D+01  0.7071554292D+00
 P   1 1.00       0.000000000000
      0.5293511794D+00  0.1000000000D+01
 P   1 1.00       0.000000000000
      0.1747842127D+00  0.1000000000D+01
 D   1 1.00       0.000000000000
      0.2314000000D+01  0.1000000000D+01
 D   1 1.00       0.000000000000
      0.6450000000D+00  0.1000000000D+01
 F   1 1.00       0.000000000000
      0.1428000000D+01  0.1000000000D+01
 ****
      2 0
 S   7 1.00       0.000000000000
      0.6070092810D+05  0.5238007490D-03
      0.9102610685D+04  0.4050632678D-02
      0.2071416601D+04  0.2082700417D-01
      0.5860247682D+03  0.8149685034D-01
      0.1905539502D+03  0.2374911384D+00
      0.6763038426D+02  0.4472617151D+00
      0.2512730691D+02  0.3489191844D+00
 S   3 1.00       0.000000000000
      0.1125746301D+03  0.1004556989D+00
      0.3479555422D+02  0.4339117295D+00
      0.6511555622D+01 -0.1208433059D+01
 S   2 1.00       0.000000000000
      0.3239903226D+01  0.6749812942D+00
      0.1547716088D+01  0.3470879576D+00
 S   1 1.00       0.000000000000
      0.4054103011D+00  0.1000000000D+01
 S   1 1.00       0.000000000000
      0.1455065106D+00  0.1000000000D+01
 P   5 1.00       0.000000000000
      0.5643671603D+03  0.3488692363D-02
      0.1334262438D+03  0.2768512678D-01
      0.4246827119D+02  0.1265940018D+00
      0.1561652758D+02  0.3616592567D+00
      0.6109398847D+01  0.6122203444D+00
 P   1 1.00       0.000000000000
      0.2440416020D+01  0.1000000000D+01
 P   1 1.00       0.000000000000
      0.8388220130D+00  0.1000000000D+01
 P   1 1.00       0.000000000000
      0.3128874690D+00  0.1000000000D+01
 P   1 1.00       0.000000000000
      0.1077010900D+00  0.1000000000D+01
 D   2 1.00       0.000000000000
      0.3756000000D+01  0.1828519746D+00
      0.8120000000D+00  0.9142598730D+00
 D   1 1.00       0.000000000000
      0.2730000000D+00  0.1000000000D+01
 F   1 1.00       0.000000000000
      0.5570000000D+00  0.1000000000D+01
 ****
      3 0
 S   6 1.00       0.000000000000
      0.1357534968D+05  0.6064550360D-03
      0.2035233368D+04  0.4697908888D-02
      0.4632256236D+03  0.2433247765D-01
      0.1312001960D+03  0.9739996831D-01
      0.4285301589D+02  0.3019558425D+00
      0.1558418577D+02  0.6623360914D+00
 S   2 1.00       0.000000000000
      0.6206713851D+01  0.6559530854D+00
      0.2576489653D+01  0.3758563329D+00
 S   1 1.00       0.000000000000
      0.5769633942D+00  0.1000000000D+01
 S   1 1.00       0.000000000000
      0.2297283136D+00  0.1000000000D+01
 S   1 1.00       0.000000000000
      0.9516444003D-01  0.1000000000D+01
 P   4 1.00       0.000000000000
      0.3469723224D+02  0.1132722000D-01
      0.7958262283D+01  0.7616965920D-01
      0.2378082688D+01  0.3019225220D+00
      0.8143320818D+00  0.7278502735D+00
 P   1 1.00       0.000000000000
      0.2888754725D+00  0.1000000000D+01
 P   1 1.00       0.000000000000
      0.1005682367D+00  0.1000000000D+01
 D   1 1.00       0.000000000000
      0.1097000000D+01  0.1000000000D+01
 D   1 1.00       0.000000000000
      0.3180000000D+00  0.1000000000D+01
 F   1 1.00       0.000000000000
      0.7610000000D+00  0.1000000000D+01
 ****
      4 0
 S   6 1.00       0.000000000000
      0.1357534968D+05  0.6064550360D-03
      0.2035233368D+04  0.4697908888D-02
      0.4632256236D+03  0.2433247765D-01
      0.1312001960D+03  0.9739996831D-01
      0.4285301589D+02  0.3019558425D+00
      0.1558418577D+02  0.6623360914D+00
 S   2 1.00       0.000000000000
      0.6206713851D+01  0.6559530854D+00
      0.2576489653D+01  0.3758563329D+00
 S   1 1.00       0.000000000000
      0.5769633942D+00  0.1000000000D+01
 S   1 1.00       0.000000000000
      0.2297283136D+00  0.1000000000D+01
 S   1 1.00       0.000000000000
      0.9516444003D-01  0.1000000000D+01
 P   4 1.00       0.000000000000
      0.3469723224D+02  0.1132722000D-01
      0.7958262283D+01  0.7616965920D-01
      0.2378082688D+01  0.3019225220D+00
      0.8143320818D+00  0.7278502735D+00
 P   1 1.00       0.000000000000
      0.2888754725D+00  0.1000000000D+01
 P   1 1.00       0.000000000000
      0.1005682367D+00  0.1000000000D+01
 D   1 1.00       0.000000000000
      0.1097000000D+01  0.1000000000D+01
 D   1 1.00       0.000000000000
      0.3180000000D+00  0.1000000000D+01
 F   1 1.00       0.000000000000
      0.7610000000D+00  0.1000000000D+01
 ****
      5 0
 S   3 1.00       0.000000000000
      0.3406134100D+02  0.2543930721D-01
      0.5123574600D+01  0.1900859489D+00
      0.1164662600D+01  0.8524411301D+00
 S   1 1.00       0.000000000000
      0.3272304100D+00  0.1000000000D+01
 S   1 1.00       0.000000000000
      0.1030724100D+00  0.1000000000D+01
 P   1 1.00       0.000000000000
      0.8000000000D+00  0.1000000000D+01
 ****
      6 0
 S   3 1.00       0.000000000000
      0.3406134100D+02  0.2543930721D-01
      0.5123574600D+01  0.1900859489D+00
      0.1164662600D+01  0.8524411301D+00
 S   1 1.00       0.000000000000
      0.3272304100D+00  0.1000000000D+01
 S   1 1.00       0.000000000000
      0.1030724100D+00  0.1000000000D+01
 P   1 1.00       0.000000000000
      0.8000000000D+00  0.1000000000D+01
 ****
      7 0
 S   3 1.00       0.000000000000
      0.3406134100D+02  0.2543930721D-01
      0.5123574600D+01  0.1900859489D+00
      0.1164662600D+01  0.8524411301D+00
 S   1 1.00       0.000000000000
      0.3272304100D+00  0.1000000000D+01
 S   1 1.00       0.000000000000
      0.1030724100D+00  0.1000000000D+01
 P   1 1.00       0.000000000000
      0.8000000000D+00  0.1000000000D+01
 ****
      8 0
 S   3 1.00       0.000000000000
      0.3406134100D+02  0.2543930721D-01
      0.5123574600D+01  0.1900859489D+00
      0.1164662600D+01  0.8524411301D+00
 S   1 1.00       0.000000000000
      0.3272304100D+00  0.1000000000D+01
 S   1 1.00       0.000000000000
      0.1030724100D+00  0.1000000000D+01
 P   1 1.00       0.000000000000
      0.8000000000D+00  0.1000000000D+01
 ****
      9 0
 S   3 1.00       0.000000000000
      0.3406134100D+02  0.2543930721D-01
      0.5123574600D+01  0.1900859489D+00
      0.1164662600D+01  0.8524411301D+00
 S   1 1.00       0.000000000000
      0.3272304100D+00  0.1000000000D+01
 S   1 1.00       0.000000000000
      0.1030724100D+00  0.1000000000D+01
 P   1 1.00       0.000000000000
      0.8000000000D+00  0.1000000000D+01
 ****
     10 0
 S   3 1.00       0.000000000000
      0.3406134100D+02  0.2543930721D-01
      0.5123574600D+01  0.1900859489D+00
      0.1164662600D+01  0.8524411301D+00
 S   1 1.00       0.000000000000
      0.3272304100D+00  0.1000000000D+01
 S   1 1.00       0.000000000000
      0.1030724100D+00  0.1000000000D+01
 P   1 1.00       0.000000000000
      0.8000000000D+00  0.1000000000D+01
 ****

 ***********************************************************************************************************************************
 *             ATOMIC CENTER             *        ATOMIC ORBITAL       *                     GAUSSIAN FUNCTIONS                    *
 ***********************************************************************************************************************************
 *                                       * FUNCTION    SHELL    SCALE  *                                                           *
 *    ATOM   X-COORD  Y-COORD  Z-COORD   *  NUMBER     TYPE     FACTOR *  EXPONENT    S-COEF      P-COEF      D-COEF      F-COEF   *
 ***********************************************************************************************************************************
 *     O      2.07251  2.00877  0.00000                                                                                            *
+                                                1   S           1.00                                                               
+                                                                      0.270324D+050.859858D+000.000000D+000.000000D+000.000000D+00 
 *                                                                     0.405239D+040.160553D+010.000000D+000.000000D+000.000000D+00*
 *                                                                     0.922327D+030.274588D+010.000000D+000.000000D+000.000000D+00*
 *                                                                     0.261241D+030.429877D+010.000000D+000.000000D+000.000000D+00*
 *                                                                     0.853546D+020.587977D+010.000000D+000.000000D+000.000000D+00*
 *                                                                     0.310350D+020.631640D+010.000000D+000.000000D+000.000000D+00*
 *                                               2   S           1.00                                                              *
+                                                                      0.122609D+020.298121D+010.000000D+000.000000D+000.000000D+00 
 *                                                                     0.499871D+010.941956D+000.000000D+000.000000D+000.000000D+00*
 *                                               3   S           1.00                                                              *
+                                                                      0.117031D+010.801929D+000.000000D+000.000000D+000.000000D+00 
 *                                               4   S           1.00                                                              *
+                                                                      0.464747D+000.401165D+000.000000D+000.000000D+000.000000D+00 
 *                                               5   S           1.00                                                              *
+                                                                      0.185045D+000.201080D+000.000000D+000.000000D+000.000000D+00 
 *                                           6-  8   P           1.00                                                              *
+                                                                      0.632750D+020.000000D+000.305720D+010.000000D+000.000000D+00 
 *                                                                     0.146270D+020.000000D+000.338448D+010.000000D+000.000000D+00*
 *                                                                     0.445012D+010.000000D+000.294743D+010.000000D+000.000000D+00*
 *                                                                     0.152758D+010.000000D+000.171183D+010.000000D+000.000000D+00*
 *                                           9- 11   P           1.00                                                              *
+                                                                      0.529351D+000.000000D+000.643606D+000.000000D+000.000000D+00 
 *                                          12- 14   P           1.00                                                              *
+                                                                      0.174784D+000.000000D+000.161090D+000.000000D+000.000000D+00 
 *                                          15- 19   D           1.00                                                              *
+                                                                      0.231400D+010.000000D+000.000000D+000.714571D+010.000000D+00 
 *                                          20- 24   D           1.00                                                              *
+                                                                      0.645000D+000.000000D+000.000000D+000.764080D+000.000000D+00 
 *                                          19- 31   F           1.00                                                              *
+                                                                      0.142800D+010.000000D+000.000000D+000.000000D+000.328165D+01 
 *---------------------------------------------------------------------------------------------------------------------------------*
 *     S     -0.48633  0.77802  0.00000                                                                                            *
+                                               32   S           1.00                                                               
+                                                                      0.607009D+050.144369D+010.000000D+000.000000D+000.000000D+00 
 *                                                                     0.910261D+040.269034D+010.000000D+000.000000D+000.000000D+00*
 *                                                                     0.207142D+040.455761D+010.000000D+000.000000D+000.000000D+00*
 *                                                                     0.586025D+030.691812D+010.000000D+000.000000D+000.000000D+00*
 *                                                                     0.190554D+030.868102D+010.000000D+000.000000D+000.000000D+00*
 *                                                                     0.676304D+020.751758D+010.000000D+000.000000D+000.000000D+00*
 *                                                                     0.251273D+020.279090D+010.000000D+000.000000D+000.000000D+00*
 *                                              33   S           1.00                                                              *
+                                                                      0.112575D+030.247437D+010.000000D+000.000000D+000.000000D+00 
 *                                                                     0.347956D+020.443052D+010.000000D+000.000000D+000.000000D+00*
 *                                                                     0.651156D+01-.351072D+010.000000D+000.000000D+000.000000D+00*
 *                                              34   S           1.00                                                              *
+                                                                      0.323990D+010.116172D+010.000000D+000.000000D+000.000000D+00 
 *                                                                     0.154772D+010.343256D+000.000000D+000.000000D+000.000000D+00*
 *                                              35   S           1.00                                                              *
+                                                                      0.405410D+000.362102D+000.000000D+000.000000D+000.000000D+00 
 *                                              36   S           1.00                                                              *
+                                                                      0.145507D+000.167908D+000.000000D+000.000000D+000.000000D+00 
 *                                          37- 39   P           1.00                                                              *
+                                                                      0.564367D+030.000000D+000.136790D+020.000000D+000.000000D+00 
 *                                                                     0.133426D+030.000000D+000.178953D+020.000000D+000.000000D+00*
 *                                                                     0.424683D+020.000000D+000.195629D+020.000000D+000.000000D+00*
 *                                                                     0.156165D+020.000000D+000.160037D+020.000000D+000.000000D+00*
 *                                                                     0.610940D+010.000000D+000.838197D+010.000000D+000.000000D+00*
 *                                          40- 42   P           1.00                                                              *
+                                                                      0.244042D+010.000000D+000.434780D+010.000000D+000.000000D+00 
 *                                          43- 45   P           1.00                                                              *
+                                                                      0.838822D+000.000000D+000.114427D+010.000000D+000.000000D+00 
 *                                          46- 48   P           1.00                                                              *
+                                                                      0.312887D+000.000000D+000.333561D+000.000000D+000.000000D+00 
 *                                          49- 51   P           1.00                                                              *
+                                                                      0.107701D+000.000000D+000.879458D-010.000000D+000.000000D+00 
 *                                          52- 56   D           1.00                                                              *
+                                                                      0.375600D+010.000000D+000.000000D+000.304985D+010.000000D+00 
 *                                                                     0.812000D+000.000000D+000.000000D+000.104521D+010.000000D+00*
 *                                          57- 61   D           1.00                                                              *
+                                                                      0.273000D+000.000000D+000.000000D+000.169705D+000.000000D+00 
 *                                          56- 68   F           1.00                                                              *
+                                                                      0.557000D+000.000000D+000.000000D+000.000000D+000.394574D+00 
 *---------------------------------------------------------------------------------------------------------------------------------*
 *     C     -0.48633 -1.44688 -2.53914                                                                                            *
+                                               69   S           1.00                                                               
+                                                                      0.135753D+050.543591D+000.000000D+000.000000D+000.000000D+00 
 *                                                                     0.203523D+040.101455D+010.000000D+000.000000D+000.000000D+00*
 *                                                                     0.463226D+030.173157D+010.000000D+000.000000D+000.000000D+00*
 *                                                                     0.131200D+030.269104D+010.000000D+000.000000D+000.000000D+00*
 *                                                                     0.428530D+020.360445D+010.000000D+000.000000D+000.000000D+00*
 *                                                                     0.155842D+020.370256D+010.000000D+000.000000D+000.000000D+00*
 *                                              70   S           1.00                                                              *
+                                                                      0.620671D+010.183835D+010.000000D+000.000000D+000.000000D+00 
 *                                                                     0.257649D+010.544758D+000.000000D+000.000000D+000.000000D+00*
 *                                              71   S           1.00                                                              *
+                                                                      0.576963D+000.471815D+000.000000D+000.000000D+000.000000D+00 
 *                                              72   S           1.00                                                              *
+                                                                      0.229728D+000.236494D+000.000000D+000.000000D+000.000000D+00 
 *                                              73   S           1.00                                                              *
+                                                                      0.951644D-010.122114D+000.000000D+000.000000D+000.000000D+00 
 *                                          74- 76   P           1.00                                                              *
+                                                                      0.346972D+020.000000D+000.135967D+010.000000D+000.000000D+00 
 *                                                                     0.795826D+010.000000D+000.145126D+010.000000D+000.000000D+00*
 *                                                                     0.237808D+010.000000D+000.127092D+010.000000D+000.000000D+00*
 *                                                                     0.814332D+000.000000D+000.802572D+000.000000D+000.000000D+00*
 *                                          77- 79   P           1.00                                                              *
+                                                                      0.288875D+000.000000D+000.301876D+000.000000D+000.000000D+00 
 *                                          80- 82   P           1.00                                                              *
+                                                                      0.100568D+000.000000D+000.807265D-010.000000D+000.000000D+00 
 *                                          83- 87   D           1.00                                                              *
+                                                                      0.109700D+010.000000D+000.000000D+000.193540D+010.000000D+00 
 *                                          88- 92   D           1.00                                                              *
+                                                                      0.318000D+000.000000D+000.000000D+000.221644D+000.000000D+00 
 *                                          87- 99   F           1.00                                                              *
+                                                                      0.761000D+000.000000D+000.000000D+000.000000D+000.796288D+00 
 *---------------------------------------------------------------------------------------------------------------------------------*
 *     C     -0.48633 -1.44688  2.53914                                                                                            *
+                                              100   S           1.00                                                               
+                                                                      0.135753D+050.543591D+000.000000D+000.000000D+000.000000D+00 
 *                                                                     0.203523D+040.101455D+010.000000D+000.000000D+000.000000D+00*
 *                                                                     0.463226D+030.173157D+010.000000D+000.000000D+000.000000D+00*
 *                                                                     0.131200D+030.269104D+010.000000D+000.000000D+000.000000D+00*
 *                                                                     0.428530D+020.360445D+010.000000D+000.000000D+000.000000D+00*
 *                                                                     0.155842D+020.370256D+010.000000D+000.000000D+000.000000D+00*
 *                                             101   S           1.00                                                              *
+                                                                      0.620671D+010.183835D+010.000000D+000.000000D+000.000000D+00 
 *                                                                     0.257649D+010.544758D+000.000000D+000.000000D+000.000000D+00*
 *                                             102   S           1.00                                                              *
+                                                                      0.576963D+000.471815D+000.000000D+000.000000D+000.000000D+00 
 *                                             103   S           1.00                                                              *
+                                                                      0.229728D+000.236494D+000.000000D+000.000000D+000.000000D+00 
 *                                             104   S           1.00                                                              *
+                                                                      0.951644D-010.122114D+000.000000D+000.000000D+000.000000D+00 
 *                                         105-107   P           1.00                                                              *
+                                                                      0.346972D+020.000000D+000.135967D+010.000000D+000.000000D+00 
 *                                                                     0.795826D+010.000000D+000.145126D+010.000000D+000.000000D+00*
 *                                                                     0.237808D+010.000000D+000.127092D+010.000000D+000.000000D+00*
 *                                                                     0.814332D+000.000000D+000.802572D+000.000000D+000.000000D+00*
 *                                         108-110   P           1.00                                                              *
+                                                                      0.288875D+000.000000D+000.301876D+000.000000D+000.000000D+00 
 *                                         111-113   P           1.00                                                              *
+                                                                      0.100568D+000.000000D+000.807265D-010.000000D+000.000000D+00 
 *                                         114-118   D           1.00                                                              *
+                                                                      0.109700D+010.000000D+000.000000D+000.193540D+010.000000D+00 
 *                                         119-123   D           1.00                                                              *
+                                                                      0.318000D+000.000000D+000.000000D+000.221644D+000.000000D+00 
 *                                         118-130   F           1.00                                                              *
+                                                                      0.761000D+000.000000D+000.000000D+000.000000D+000.796288D+00 
 *---------------------------------------------------------------------------------------------------------------------------------*
 *     H     -2.24833 -2.51633 -2.48000                                                                                            *
+                                              131   S           1.00                                                               
+                                                                      0.340613D+020.255630D+000.000000D+000.000000D+000.000000D+00 
 *                                                                     0.512357D+010.461360D+000.000000D+000.000000D+000.000000D+00*
 *                                                                     0.116466D+010.681121D+000.000000D+000.000000D+000.000000D+00*
 *                                             132   S           1.00                                                              *
+                                                                      0.327230D+000.308355D+000.000000D+000.000000D+000.000000D+00 
 *                                             133   S           1.00                                                              *
+                                                                      0.103072D+000.129648D+000.000000D+000.000000D+000.000000D+00 
 *                                         134-136   P           1.00                                                              *
+                                                                      0.800000D+000.000000D+000.107846D+010.000000D+000.000000D+00 
 *---------------------------------------------------------------------------------------------------------------------------------*
 *     H     -0.37801 -0.36807 -4.29056                                                                                            *
+                                              137   S           1.00                                                               
+                                                                      0.340613D+020.255630D+000.000000D+000.000000D+000.000000D+00 
 *                                                                     0.512357D+010.461360D+000.000000D+000.000000D+000.000000D+00*
 *                                                                     0.116466D+010.681121D+000.000000D+000.000000D+000.000000D+00*
 *                                             138   S           1.00                                                              *
+                                                                      0.327230D+000.308355D+000.000000D+000.000000D+000.000000D+00 
 *                                             139   S           1.00                                                              *
+                                                                      0.103072D+000.129648D+000.000000D+000.000000D+000.000000D+00 
 *                                         140-142   P           1.00                                                              *
+                                                                      0.800000D+000.000000D+000.107846D+010.000000D+000.000000D+00 
 *---------------------------------------------------------------------------------------------------------------------------------*
 *     H      1.14497 -2.69356 -2.34464                                                                                            *
+                                              143   S           1.00                                                               
+                                                                      0.340613D+020.255630D+000.000000D+000.000000D+000.000000D+00 
 *                                                                     0.512357D+010.461360D+000.000000D+000.000000D+000.000000D+00*
 *                                                                     0.116466D+010.681121D+000.000000D+000.000000D+000.000000D+00*
 *                                             144   S           1.00                                                              *
+                                                                      0.327230D+000.308355D+000.000000D+000.000000D+000.000000D+00 
 *                                             145   S           1.00                                                              *
+                                                                      0.103072D+000.129648D+000.000000D+000.000000D+000.000000D+00 
 *                                         146-148   P           1.00                                                              *
+                                                                      0.800000D+000.000000D+000.107846D+010.000000D+000.000000D+00 
 *---------------------------------------------------------------------------------------------------------------------------------*
 *     H     -2.24833 -2.51633  2.48000                                                                                            *
+                                              149   S           1.00                                                               
+                                                                      0.340613D+020.255630D+000.000000D+000.000000D+000.000000D+00 
 *                                                                     0.512357D+010.461360D+000.000000D+000.000000D+000.000000D+00*
 *                                                                     0.116466D+010.681121D+000.000000D+000.000000D+000.000000D+00*
 *                                             150   S           1.00                                                              *
+                                                                      0.327230D+000.308355D+000.000000D+000.000000D+000.000000D+00 
 *                                             151   S           1.00                                                              *
+                                                                      0.103072D+000.129648D+000.000000D+000.000000D+000.000000D+00 
 *                                         152-154   P           1.00                                                              *
+                                                                      0.800000D+000.000000D+000.107846D+010.000000D+000.000000D+00 
 *---------------------------------------------------------------------------------------------------------------------------------*
 *     H      1.14497 -2.69356  2.34464                                                                                            *
+                                              155   S           1.00                                                               
+                                                                      0.340613D+020.255630D+000.000000D+000.000000D+000.000000D+00 
 *                                                                     0.512357D+010.461360D+000.000000D+000.000000D+000.000000D+00*
 *                                                                     0.116466D+010.681121D+000.000000D+000.000000D+000.000000D+00*
 *                                             156   S           1.00                                                              *
+                                                                      0.327230D+000.308355D+000.000000D+000.000000D+000.000000D+00 
 *                                             157   S           1.00                                                              *
+                                                                      0.103072D+000.129648D+000.000000D+000.000000D+000.000000D+00 
 *                                         158-160   P           1.00                                                              *
+                                                                      0.800000D+000.000000D+000.107846D+010.000000D+000.000000D+00 
 *---------------------------------------------------------------------------------------------------------------------------------*
 *     H     -0.37801 -0.36807  4.29056                                                                                            *
+                                              161   S           1.00                                                               
+                                                                      0.340613D+020.255630D+000.000000D+000.000000D+000.000000D+00 
 *                                                                     0.512357D+010.461360D+000.000000D+000.000000D+000.000000D+00*
 *                                                                     0.116466D+010.681121D+000.000000D+000.000000D+000.000000D+00*
 *                                             162   S           1.00                                                              *
+                                                                      0.327230D+000.308355D+000.000000D+000.000000D+000.000000D+00 
 *                                             163   S           1.00                                                              *
+                                                                      0.103072D+000.129648D+000.000000D+000.000000D+000.000000D+00 
 *                                         164-166   P           1.00                                                              *
+                                                                      0.800000D+000.000000D+000.107846D+010.000000D+000.000000D+00 
 ***********************************************************************************************************************************
 There are   108 symmetry adapted cartesian basis functions of A'  symmetry.
 There are    78 symmetry adapted cartesian basis functions of A"  symmetry.
 There are    95 symmetry adapted basis functions of A'  symmetry.
 There are    71 symmetry adapted basis functions of A"  symmetry.
   166 basis functions,   270 primitive gaussians,   186 cartesian basis functions
    21 alpha electrons       21 beta electrons
       nuclear repulsion energy       184.8831861711 Hartrees.
 IExCor= 1009 DFT=T Ex+Corr=PBE1PBE ExCW=0 ScaHFX=  0.250000
 ScaDFX=  0.750000  0.750000  1.000000  1.000000 ScalE2=  1.000000  1.000000
 IRadAn=      5 IRanWt=     -1 IRanGd=            0 ICorTp=0 IEmpDi=141
 NAtoms=   10 NActive=   10 NUniq=    6 SFac= 2.78D+00 NAtFMM=   60 NAOKFM=F Big=F
 Integral buffers will be    131072 words long.
 Raffenetti 2 integral format.
 Two-electron integral symmetry is turned on.
 R6Disp:  Grimme-D3(BJ) Dispersion energy=       -0.0063006428 Hartrees.
 Nuclear repulsion after empirical dispersion term =      184.8768855284 Hartrees.
 Leave Link  301 at Sat Nov 15 13:11:00 2025, MaxMem=  1048576000 cpu:               0.4 elap:               0.1
 (Enter /home/pcmt/gaussian/g16.C.01/g16/l302.exe)
 NPDir=0 NMtPBC=     1 NCelOv=     1 NCel=       1 NClECP=     1 NCelD=      1
         NCelK=      1 NCelE2=     1 NClLst=     1 CellRange=     0.0.
 One-electron integrals computed using PRISM.
 One-electron integral symmetry used in STVInt
 NBasis=   166 RedAO= T EigKep=  9.97D-04  NBF=    95    71
 NBsUse=   166 1.00D-06 EigRej= -1.00D+00 NBFU=    95    71
 Precomputing XC quadrature grid using
 IXCGrd= 4 IRadAn=           5 IRanWt=          -1 IRanGd=           0 AccXCQ= 0.00D+00.
 Generated NRdTot=       0 NPtTot=           0 NUsed=           0 NTot=          32
 NSgBfM=   185   185   185   185   185 MxSgAt=    10 MxSgA2=    10.
 Leave Link  302 at Sat Nov 15 13:11:01 2025, MaxMem=  1048576000 cpu:               1.0 elap:               0.3
 (Enter /home/pcmt/gaussian/g16.C.01/g16/l303.exe)
 DipDrv:  MaxL=1.
 Leave Link  303 at Sat Nov 15 13:11:01 2025, MaxMem=  1048576000 cpu:               0.3 elap:               0.1
 (Enter /home/pcmt/gaussian/g16.C.01/g16/l401.exe)
 Initial guess from the checkpoint file:  "DMSO.pbe0-d3bj-gp.sp.chk"
 B after Tr=     0.000000    0.000000    0.000000
         Rot=    1.000000    0.000000    0.000000    0.000000 Ang=   0.00 deg.
 Guess basis will be translated and rotated to current coordinates.
 JPrj=2 DoOrth=T DoCkMO=T.
 Initial guess orbital symmetries:
       Occupied  (A') (A') (A") (A') (A') (A') (A") (A') (A') (A')
                 (A") (A') (A') (A') (A") (A") (A') (A") (A') (A")
                 (A')
       Virtual   (A') (A") (A') (A') (A') (A') (A") (A") (A") (A")
                 (A') (A') (A") (A') (A') (A') (A") (A') (A") (A')
                 (A') (A") (A') (A") (A") (A') (A') (A") (A') (A")
                 (A') (A") (A') (A") (A') (A") (A") (A') (A') (A')
                 (A') (A') (A") (A") (A') (A") (A') (A") (A') (A')
                 (A') (A") (A") (A') (A") (A") (A') (A") (A') (A")
                 (A") (A') (A') (A') (A") (A') (A") (A') (A") (A')
                 (A') (A') (A") (A") (A') (A") (A') (A') (A") (A')
                 (A") (A') (A") (A') (A") (A') (A') (A") (A') (A")
                 (A') (A") (A") (A') (A') (A') (A") (A') (A") (A')
                 (A') (A") (A') (A") (A") (A") (A') (A") (A') (A")
                 (A') (A') (A') (A') (A") (A') (A") (A") (A") (A')
                 (A') (A") (A") (A') (A') (A") (A') (A") (A') (A")
                 (A') (A") (A') (A') (A") (A') (A") (A') (A') (A")
                 (A') (A') (A') (A") (A')
 The electronic state of the initial guess is 1-A'.
 Leave Link  401 at Sat Nov 15 13:11:01 2025, MaxMem=  1048576000 cpu:               0.7 elap:               0.2
 (Enter /home/pcmt/gaussian/g16.C.01/g16/l502.exe)
 Keep R1 ints in memory in symmetry-blocked form, NReq=144174869.
 FoFCou: FMM=F IPFlag=           0 FMFlag=           0 FMFlg1=           0
         NFxFlg=           0 DoJE=F BraDBF=F KetDBF=F FulRan=T
         wScrn=  0.000000 ICntrl=       600 IOpCl=  0 I1Cent=           0 NGrid=           0
         NMat0=    1 NMatS0=  13861 NMatT0=    0 NMatD0=    1 NMtDS0=    0 NMtDT0=    0
 Petite list used in FoFCou.
 Closed shell SCF:
 Using DIIS extrapolation, IDIIS=  1040.
 NGot=  1048576000 LenX=  1000400745 LenY=  1000365708
 Requested convergence on RMS density matrix=1.00D-08 within 200 cycles.
 Requested convergence on MAX density matrix=1.00D-06.
 Requested convergence on             energy=1.00D-06.
 No special actions if energy rises.

 Cycle   1  Pass 1  IDiag  1:
 E= -552.969938388871    
 DIIS: error= 4.55D-03 at cycle   1 NSaved=   1.
 NSaved= 1 IEnMin= 1 EnMin= -552.969938388871     IErMin= 1 ErrMin= 4.55D-03
 ErrMax= 4.55D-03  0.00D+00 EMaxC= 1.00D-01 BMatC= 2.02D-03 BMatP= 2.02D-03
 IDIUse=3 WtCom= 9.54D-01 WtEn= 4.55D-02
 Coeff-Com:  0.100D+01
 Coeff-En:   0.100D+01
 Coeff:      0.100D+01
 Gap=     0.271 Goal=   None    Shift=    0.000
 GapD=    0.271 DampG=1.000 DampE=1.000 DampFc=1.0000 IDamp=-1.
 RMSDP=1.05D-03 MaxDP=1.64D-02              OVMax= 5.00D-02

 Cycle   2  Pass 1  IDiag  1:
 E= -552.970179375591     Delta-E=       -0.000240986721 Rises=F Damp=F
 DIIS: error= 5.66D-03 at cycle   2 NSaved=   2.
 NSaved= 2 IEnMin= 2 EnMin= -552.970179375591     IErMin= 1 ErrMin= 4.55D-03
 ErrMax= 5.66D-03  0.00D+00 EMaxC= 1.00D-01 BMatC= 4.86D-03 BMatP= 2.02D-03
 IDIUse=3 WtCom= 1.17D-01 WtEn= 8.83D-01
 Coeff-Com:  0.636D+00 0.364D+00
 Coeff-En:   0.483D+00 0.517D+00
 Coeff:      0.501D+00 0.499D+00
 Gap=     0.286 Goal=   None    Shift=    0.000
 RMSDP=5.51D-04 MaxDP=1.08D-02 DE=-2.41D-04 OVMax= 3.19D-02

 Cycle   3  Pass 1  IDiag  1:
 E= -552.973378323581     Delta-E=       -0.003198947990 Rises=F Damp=F
 DIIS: error= 3.95D-03 at cycle   3 NSaved=   3.
 NSaved= 3 IEnMin= 3 EnMin= -552.973378323581     IErMin= 3 ErrMin= 3.95D-03
 ErrMax= 3.95D-03  0.00D+00 EMaxC= 1.00D-01 BMatC= 1.83D-03 BMatP= 2.02D-03
 IDIUse=3 WtCom= 9.61D-01 WtEn= 3.95D-02
 Coeff-Com:  0.180D+00 0.344D+00 0.477D+00
 Coeff-En:   0.000D+00 0.260D+00 0.740D+00
 Coeff:      0.173D+00 0.340D+00 0.487D+00
 Gap=     0.280 Goal=   None    Shift=    0.000
 RMSDP=1.66D-04 MaxDP=4.92D-03 DE=-3.20D-03 OVMax= 1.11D-02

 Cycle   4  Pass 1  IDiag  1:
 E= -552.974634005379     Delta-E=       -0.001255681798 Rises=F Damp=F
 DIIS: error= 2.21D-04 at cycle   4 NSaved=   4.
 NSaved= 4 IEnMin= 4 EnMin= -552.974634005379     IErMin= 4 ErrMin= 2.21D-04
 ErrMax= 2.21D-04  0.00D+00 EMaxC= 1.00D-01 BMatC= 1.37D-05 BMatP= 1.83D-03
 IDIUse=3 WtCom= 9.98D-01 WtEn= 2.21D-03
 Coeff-Com:  0.251D-01 0.771D-01 0.147D+00 0.751D+00
 Coeff-En:   0.000D+00 0.000D+00 0.000D+00 0.100D+01
 Coeff:      0.250D-01 0.769D-01 0.147D+00 0.752D+00
 Gap=     0.280 Goal=   None    Shift=    0.000
 RMSDP=2.25D-05 MaxDP=1.30D-03 DE=-1.26D-03 OVMax= 1.02D-03

 Cycle   5  Pass 1  IDiag  1:
 E= -552.974643920142     Delta-E=       -0.000009914763 Rises=F Damp=F
 DIIS: error= 1.15D-04 at cycle   5 NSaved=   5.
 NSaved= 5 IEnMin= 5 EnMin= -552.974643920142     IErMin= 5 ErrMin= 1.15D-04
 ErrMax= 1.15D-04  0.00D+00 EMaxC= 1.00D-01 BMatC= 2.41D-06 BMatP= 1.37D-05
 IDIUse=3 WtCom= 9.99D-01 WtEn= 1.15D-03
 Coeff-Com: -0.197D-02 0.687D-02 0.179D-01 0.320D+00 0.657D+00
 Coeff-En:   0.000D+00 0.000D+00 0.000D+00 0.661D-01 0.934D+00
 Coeff:     -0.197D-02 0.686D-02 0.179D-01 0.319D+00 0.658D+00
 Gap=     0.280 Goal=   None    Shift=    0.000
 RMSDP=7.79D-06 MaxDP=4.80D-04 DE=-9.91D-06 OVMax= 3.59D-04

 Cycle   6  Pass 1  IDiag  1:
 E= -552.974645755942     Delta-E=       -0.000001835799 Rises=F Damp=F
 DIIS: error= 3.36D-05 at cycle   6 NSaved=   6.
 NSaved= 6 IEnMin= 6 EnMin= -552.974645755942     IErMin= 6 ErrMin= 3.36D-05
 ErrMax= 3.36D-05  0.00D+00 EMaxC= 1.00D-01 BMatC= 1.33D-07 BMatP= 2.41D-06
 IDIUse=1 WtCom= 1.00D+00 WtEn= 0.00D+00
 Coeff-Com: -0.162D-02-0.133D-02-0.416D-02 0.657D-01 0.234D+00 0.707D+00
 Coeff:     -0.162D-02-0.133D-02-0.416D-02 0.657D-01 0.234D+00 0.707D+00
 Gap=     0.280 Goal=   None    Shift=    0.000
 RMSDP=1.94D-06 MaxDP=5.82D-05 DE=-1.84D-06 OVMax= 1.20D-04

 Cycle   7  Pass 1  IDiag  1:
 E= -552.974645877871     Delta-E=       -0.000000121929 Rises=F Damp=F
 DIIS: error= 8.99D-06 at cycle   7 NSaved=   7.
 NSaved= 7 IEnMin= 7 EnMin= -552.974645877871     IErMin= 7 ErrMin= 8.99D-06
 ErrMax= 8.99D-06  0.00D+00 EMaxC= 1.00D-01 BMatC= 9.19D-09 BMatP= 1.33D-07
 IDIUse=1 WtCom= 1.00D+00 WtEn= 0.00D+00
 Coeff-Com: -0.374D-03-0.620D-03-0.205D-02 0.581D-02 0.409D-01 0.275D+00
 Coeff-Com:  0.681D+00
 Coeff:     -0.374D-03-0.620D-03-0.205D-02 0.581D-02 0.409D-01 0.275D+00
 Coeff:      0.681D+00
 Gap=     0.280 Goal=   None    Shift=    0.000
 RMSDP=5.46D-07 MaxDP=1.38D-05 DE=-1.22D-07 OVMax= 2.08D-05

 Cycle   8  Pass 1  IDiag  1:
 E= -552.974645886351     Delta-E=       -0.000000008481 Rises=F Damp=F
 DIIS: error= 1.42D-06 at cycle   8 NSaved=   8.
 NSaved= 8 IEnMin= 8 EnMin= -552.974645886351     IErMin= 8 ErrMin= 1.42D-06
 ErrMax= 1.42D-06  0.00D+00 EMaxC= 1.00D-01 BMatC= 4.25D-10 BMatP= 9.19D-09
 IDIUse=1 WtCom= 1.00D+00 WtEn= 0.00D+00
 Coeff-Com: -0.905D-04-0.187D-03-0.373D-03-0.339D-03 0.412D-02 0.682D-01
 Coeff-Com:  0.234D+00 0.695D+00
 Coeff:     -0.905D-04-0.187D-03-0.373D-03-0.339D-03 0.412D-02 0.682D-01
 Coeff:      0.234D+00 0.695D+00
 Gap=     0.280 Goal=   None    Shift=    0.000
 RMSDP=1.44D-07 MaxDP=4.44D-06 DE=-8.48D-09 OVMax= 6.00D-06

 Cycle   9  Pass 1  IDiag  1:
 E= -552.974645886714     Delta-E=       -0.000000000363 Rises=F Damp=F
 DIIS: error= 4.18D-07 at cycle   9 NSaved=   9.
 NSaved= 9 IEnMin= 9 EnMin= -552.974645886714     IErMin= 9 ErrMin= 4.18D-07
 ErrMax= 4.18D-07  0.00D+00 EMaxC= 1.00D-01 BMatC= 3.71D-11 BMatP= 4.25D-10
 IDIUse=1 WtCom= 1.00D+00 WtEn= 0.00D+00
 Coeff-Com:  0.638D-05-0.346D-04 0.717D-04-0.891D-03-0.290D-02-0.190D-02
 Coeff-Com:  0.181D-01 0.247D+00 0.740D+00
 Coeff:      0.638D-05-0.346D-04 0.717D-04-0.891D-03-0.290D-02-0.190D-02
 Coeff:      0.181D-01 0.247D+00 0.740D+00
 Gap=     0.280 Goal=   None    Shift=    0.000
 RMSDP=3.68D-08 MaxDP=9.56D-07 DE=-3.63D-10 OVMax= 1.64D-06

 Cycle  10  Pass 1  IDiag  1:
 E= -552.974645886750     Delta-E=       -0.000000000036 Rises=F Damp=F
 DIIS: error= 4.35D-08 at cycle  10 NSaved=  10.
 NSaved=10 IEnMin=10 EnMin= -552.974645886750     IErMin=10 ErrMin= 4.35D-08
 ErrMax= 4.35D-08  0.00D+00 EMaxC= 1.00D-01 BMatC= 3.14D-13 BMatP= 3.71D-11
 IDIUse=1 WtCom= 1.00D+00 WtEn= 0.00D+00
 Coeff-Com:  0.358D-05-0.262D-05 0.187D-04-0.637D-04-0.476D-03-0.287D-02
 Coeff-Com: -0.742D-02 0.768D-02 0.944D-01 0.909D+00
 Coeff:      0.358D-05-0.262D-05 0.187D-04-0.637D-04-0.476D-03-0.287D-02
 Coeff:     -0.742D-02 0.768D-02 0.944D-01 0.909D+00
 Gap=     0.280 Goal=   None    Shift=    0.000
 RMSDP=6.93D-09 MaxDP=1.05D-07 DE=-3.57D-11 OVMax= 6.08D-07

 SCF Done:  E(RPBE1PBE) =  -552.974645887     A.U. after   10 cycles
            NFock= 10  Conv=0.69D-08     -V/T= 2.0024
 KE= 5.516350183508D+02 PE=-1.678547701077D+03 EE= 3.890611513110D+02
 Leave Link  502 at Sat Nov 15 13:11:15 2025, MaxMem=  1048576000 cpu:              55.0 elap:              14.0
 (Enter /home/pcmt/gaussian/g16.C.01/g16/l601.exe)
 Copying SCF densities to generalized density rwf, IOpCl= 0 IROHF=0.

 **********************************************************************

            Population analysis using the SCF Density.

 **********************************************************************

 Orbital symmetries:
       Occupied  (A') (A') (A") (A') (A') (A') (A") (A') (A') (A')
                 (A") (A') (A') (A') (A") (A") (A') (A") (A') (A")
                 (A')
       Virtual   (A') (A") (A') (A') (A') (A') (A") (A") (A") (A")
                 (A') (A') (A") (A') (A') (A") (A') (A') (A") (A')
                 (A") (A') (A") (A") (A') (A') (A') (A") (A') (A")
                 (A') (A") (A") (A') (A") (A') (A") (A') (A') (A')
                 (A') (A') (A") (A") (A') (A") (A') (A') (A") (A')
                 (A') (A") (A") (A") (A') (A") (A') (A") (A') (A")
                 (A") (A') (A') (A') (A") (A') (A") (A') (A") (A')
                 (A') (A") (A') (A") (A') (A") (A') (A") (A') (A")
                 (A') (A') (A") (A') (A") (A') (A') (A") (A') (A")
                 (A') (A") (A") (A') (A') (A') (A") (A') (A") (A')
                 (A') (A") (A') (A") (A") (A") (A') (A") (A') (A")
                 (A') (A') (A') (A') (A") (A") (A') (A") (A") (A')
                 (A') (A") (A") (A') (A') (A") (A') (A") (A') (A")
                 (A') (A") (A') (A') (A") (A') (A") (A') (A') (A")
                 (A') (A') (A') (A") (A')
 The electronic state is 1-A'.
 Alpha  occ. eigenvalues --  -89.11470 -19.15756 -10.25163 -10.25162  -8.08101
 Alpha  occ. eigenvalues --   -6.01669  -6.01668  -6.01089  -1.03118  -0.82284
 Alpha  occ. eigenvalues --   -0.74950  -0.61940  -0.49031  -0.47839  -0.47647
 Alpha  occ. eigenvalues --   -0.44265  -0.41536  -0.40892  -0.36615  -0.28454
 Alpha  occ. eigenvalues --   -0.24211
 Alpha virt. eigenvalues --    0.03822   0.03956   0.04087   0.07799   0.09007
 Alpha virt. eigenvalues --    0.09839   0.10455   0.12806   0.14907   0.19257
 Alpha virt. eigenvalues --    0.19982   0.23049   0.23086   0.23884   0.27229
 Alpha virt. eigenvalues --    0.31862   0.32962   0.34229   0.37805   0.37822
 Alpha virt. eigenvalues --    0.41805   0.43342   0.43592   0.45501   0.46399
 Alpha virt. eigenvalues --    0.46808   0.49170   0.50594   0.53095   0.54028
 Alpha virt. eigenvalues --    0.58694   0.62446   0.72109   0.72423   0.79210
 Alpha virt. eigenvalues --    0.80334   0.80461   0.84986   0.86878   0.89091
 Alpha virt. eigenvalues --    0.89442   0.97900   0.98962   0.99445   1.04808
 Alpha virt. eigenvalues --    1.06482   1.38738   1.41452   1.42997   1.43740
 Alpha virt. eigenvalues --    1.47212   1.48759   1.50318   1.51107   1.51373
 Alpha virt. eigenvalues --    1.52971   1.56316   1.58109   1.60272   1.61730
 Alpha virt. eigenvalues --    1.63152   1.64334   1.65712   1.68227   1.68398
 Alpha virt. eigenvalues --    1.74000   1.77385   1.81050   1.82646   1.89063
 Alpha virt. eigenvalues --    1.94609   2.02565   2.02779   2.10788   2.11677
 Alpha virt. eigenvalues --    2.14030   2.19971   2.26662   2.26886   2.28188
 Alpha virt. eigenvalues --    2.28415   2.31260   2.33090   2.33445   2.33955
 Alpha virt. eigenvalues --    2.43074   2.52395   2.52861   2.55711   2.57940
 Alpha virt. eigenvalues --    2.61692   2.66340   2.67177   2.69866   2.75768
 Alpha virt. eigenvalues --    2.81132   2.81449   2.90832   2.97485   3.01930
 Alpha virt. eigenvalues --    3.05801   3.07715   3.09592   3.10546   3.11994
 Alpha virt. eigenvalues --    3.27467   3.33275   3.36780   3.38064   3.41752
 Alpha virt. eigenvalues --    3.42669   3.47307   3.54311   3.55096   3.58441
 Alpha virt. eigenvalues --    3.59357   3.59484   3.73891   3.82071   3.96542
 Alpha virt. eigenvalues --    4.17611   4.21625   4.23442   4.23504   4.42046
 Alpha virt. eigenvalues --    4.45668   5.20780   5.20839   5.28250   5.31687
 Alpha virt. eigenvalues --    5.45608   5.45836   5.54572   6.35994   6.38862
 Alpha virt. eigenvalues --    6.72305   6.74794   6.91244   9.12013   9.42680
 Alpha virt. eigenvalues --    9.50302  20.51818  22.25676  22.26015  43.58625
     Molecular Orbital Coefficients:
                           1         2         3         4         5
                           O         O         O         O         O
     Eigenvalues --   -89.11470 -19.15756 -10.25163 -10.25162  -8.08101
   1 1   O  1S          0.00002   0.43538   0.00000  -0.00000  -0.00005
   2        2S         -0.00008   0.63982   0.00000   0.00004  -0.00022
   3        3S          0.00074   0.03309   0.00000  -0.00035   0.00164
   4        4S         -0.00158  -0.02179   0.00000   0.00154  -0.00375
   5        5S         -0.00095   0.00906   0.00000  -0.00455  -0.00063
   6        6PX        -0.00023  -0.00174   0.00000  -0.00005  -0.00054
   7        6PY        -0.00011  -0.00095   0.00000  -0.00004  -0.00025
   8        6PZ         0.00000   0.00000  -0.00007   0.00000   0.00000
   9        7PX         0.00132   0.00349   0.00000   0.00020   0.00287
  10        7PY         0.00064   0.00200   0.00000   0.00018   0.00139
  11        7PZ         0.00000   0.00000   0.00035   0.00000   0.00000
  12        8PX         0.00038  -0.00163   0.00000   0.00088   0.00040
  13        8PY         0.00008  -0.00121   0.00000   0.00135  -0.00014
  14        8PZ         0.00000   0.00000   0.00059   0.00000   0.00000
  15        9D 0       -0.00005  -0.00012   0.00000  -0.00001  -0.00009
  16        9D+1        0.00000   0.00000   0.00006   0.00000   0.00000
  17        9D-1        0.00000   0.00000   0.00007   0.00000   0.00000
  18        9D+2        0.00006   0.00014   0.00000  -0.00003   0.00011
  19        9D-2        0.00007   0.00017   0.00000   0.00004   0.00012
  20       10D 0        0.00039   0.00055   0.00000   0.00004   0.00077
  21       10D+1        0.00000   0.00000  -0.00033   0.00000   0.00000
  22       10D-1        0.00000   0.00000  -0.00034   0.00000   0.00000
  23       10D+2       -0.00045  -0.00055   0.00000   0.00016  -0.00091
  24       10D-2       -0.00054  -0.00076   0.00000  -0.00021  -0.00103
  25       11F 0        0.00000   0.00000  -0.00005   0.00000   0.00000
  26       11F+1       -0.00011  -0.00011   0.00000   0.00002  -0.00011
  27       11F-1       -0.00005  -0.00007   0.00000  -0.00002  -0.00004
  28       11F+2        0.00000   0.00000   0.00002   0.00000   0.00000
  29       11F-2        0.00000   0.00000   0.00007   0.00000   0.00000
  30       11F+3        0.00003   0.00002   0.00000  -0.00004   0.00005
  31       11F-3        0.00016   0.00017   0.00000  -0.00000   0.00014
  32 2   S  1S          0.99922   0.00010   0.00000   0.00002  -0.28774
  33        2S         -0.03153  -0.00025   0.00000  -0.00006  -0.24072
  34        3S         -0.01102  -0.00074   0.00000  -0.00022   0.80635
  35        4S          0.00433   0.00073   0.00000  -0.00039   0.03032
  36        5S          0.00050   0.00060   0.00000   0.00608  -0.00594
  37        6PX         0.00012   0.00001   0.00000  -0.00002   0.00485
  38        6PY        -0.00006  -0.00001   0.00000   0.00002  -0.00377
  39        6PZ         0.00000   0.00000   0.00002   0.00000   0.00000
  40        7PX        -0.00015  -0.00009   0.00000   0.00007   0.00303
  41        7PY        -0.00002   0.00004   0.00000  -0.00003  -0.00273
  42        7PZ         0.00000   0.00000  -0.00002   0.00000   0.00000
  43        8PX        -0.00010  -0.00031   0.00000  -0.00026   0.00004
  44        8PY         0.00019  -0.00046   0.00000   0.00015   0.00056
  45        8PZ         0.00000   0.00000   0.00011   0.00000   0.00000
  46        9PX         0.00154   0.00315   0.00000   0.00079   0.00350
  47        9PY        -0.00066   0.00225   0.00000  -0.00201  -0.00327
  48        9PZ         0.00000   0.00000  -0.00233   0.00000   0.00000
  49       10PX        -0.00002  -0.00167   0.00000   0.00222  -0.00093
  50       10PY         0.00040  -0.00103   0.00000  -0.00166   0.00193
  51       10PZ         0.00000   0.00000   0.00201   0.00000   0.00000
  52       11D 0       -0.00006  -0.00038   0.00000   0.00017   0.00017
  53       11D+1        0.00000   0.00000   0.00013   0.00000   0.00000
  54       11D-1        0.00000   0.00000   0.00033   0.00000   0.00000
  55       11D+2        0.00008   0.00032   0.00000  -0.00002  -0.00004
  56       11D-2        0.00018   0.00050   0.00000   0.00003   0.00084
  57       12D 0       -0.00020  -0.00106   0.00000   0.00008  -0.00024
  58       12D+1        0.00000   0.00000  -0.00074   0.00000   0.00000
  59       12D-1        0.00000   0.00000   0.00040   0.00000   0.00000
  60       12D+2        0.00016   0.00164   0.00000  -0.00063   0.00000
  61       12D-2        0.00075   0.00114   0.00000   0.00002   0.00149
  62       13F 0        0.00000   0.00000   0.00002   0.00000   0.00000
  63       13F+1       -0.00031  -0.00050   0.00000   0.00001  -0.00080
  64       13F-1       -0.00040  -0.00005   0.00000   0.00019  -0.00132
  65       13F+2        0.00000   0.00000  -0.00048   0.00000   0.00000
  66       13F-2        0.00000   0.00000  -0.00007   0.00000   0.00000
  67       13F+3        0.00012   0.00023   0.00000   0.00015   0.00028
  68       13F-3        0.00049   0.00060   0.00000   0.00004   0.00135
  69 3   C  1S          0.00001  -0.00001   0.33029   0.33028  -0.00003
  70        2S         -0.00004   0.00003   0.43047   0.43049  -0.00011
  71        3S          0.00053  -0.00050   0.02489   0.02473   0.00177
  72        4S         -0.00120   0.00224  -0.01527  -0.01420  -0.00431
  73        5S          0.00103  -0.00417   0.02085   0.01264   0.00548
  74        6PX        -0.00001   0.00002  -0.00002  -0.00004  -0.00002
  75        6PY         0.00013  -0.00003   0.00022   0.00021   0.00040
  76        6PZ         0.00015  -0.00003   0.00030   0.00034   0.00045
  77        7PX         0.00012   0.00024  -0.00023  -0.00008   0.00022
  78        7PY        -0.00062   0.00086  -0.00169  -0.00203  -0.00202
  79        7PZ        -0.00072   0.00041  -0.00219  -0.00333  -0.00228
  80        8PX         0.00010  -0.00026   0.00020  -0.00026   0.00039
  81        8PY         0.00002  -0.00084  -0.00098  -0.00043   0.00046
  82        8PZ        -0.00005  -0.00030   0.00251  -0.00065   0.00019
  83        9D 0        0.00000  -0.00002  -0.00006  -0.00013  -0.00001
  84        9D+1       -0.00001   0.00003   0.00000   0.00002  -0.00002
  85        9D-1        0.00004   0.00008  -0.00017  -0.00021   0.00005
  86        9D+2       -0.00001   0.00002   0.00004   0.00010  -0.00002
  87        9D-2        0.00001   0.00008   0.00004   0.00001   0.00001
  88       10D 0       -0.00025   0.00057  -0.00040  -0.00074  -0.00078
  89       10D+1        0.00010  -0.00007  -0.00006  -0.00012   0.00023
  90       10D-1       -0.00064  -0.00016  -0.00126  -0.00162  -0.00193
  91       10D+2        0.00025  -0.00038   0.00071   0.00049   0.00081
  92       10D-2       -0.00003  -0.00042  -0.00019  -0.00009  -0.00001
  93       11F 0        0.00000   0.00004  -0.00017  -0.00026   0.00001
  94       11F+1        0.00001  -0.00002   0.00006   0.00007   0.00004
  95       11F-1       -0.00021   0.00009   0.00061   0.00060  -0.00058
  96       11F+2        0.00021  -0.00001   0.00034   0.00032   0.00055
  97       11F-2        0.00001  -0.00004  -0.00012  -0.00013   0.00004
  98       11F+3       -0.00001   0.00002  -0.00010  -0.00012  -0.00004
  99       11F-3        0.00004   0.00001  -0.00070  -0.00074   0.00012
 100 4   C  1S          0.00001  -0.00001  -0.33029   0.33028  -0.00003
 101        2S         -0.00004   0.00003  -0.43047   0.43049  -0.00011
 102        3S          0.00053  -0.00050  -0.02489   0.02473   0.00177
 103        4S         -0.00120   0.00224   0.01527  -0.01420  -0.00431
 104        5S          0.00103  -0.00417  -0.02085   0.01264   0.00548
 105        6PX        -0.00001   0.00002   0.00002  -0.00004  -0.00002
 106        6PY         0.00013  -0.00003  -0.00022   0.00021   0.00040
 107        6PZ        -0.00015   0.00003   0.00030  -0.00034  -0.00045
 108        7PX         0.00012   0.00024   0.00023  -0.00008   0.00022
 109        7PY        -0.00062   0.00086   0.00169  -0.00203  -0.00202
 110        7PZ         0.00072  -0.00041  -0.00219   0.00333   0.00228
 111        8PX         0.00010  -0.00026  -0.00020  -0.00026   0.00039
 112        8PY         0.00002  -0.00084   0.00098  -0.00043   0.00046
 113        8PZ         0.00005   0.00030   0.00251   0.00065  -0.00019
 114        9D 0        0.00000  -0.00002   0.00006  -0.00013  -0.00001
 115        9D+1        0.00001  -0.00003   0.00000  -0.00002   0.00002
 116        9D-1       -0.00004  -0.00008  -0.00017   0.00021  -0.00005
 117        9D+2       -0.00001   0.00002  -0.00004   0.00010  -0.00002
 118        9D-2        0.00001   0.00008  -0.00004   0.00001   0.00001
 119       10D 0       -0.00025   0.00057   0.00040  -0.00074  -0.00078
 120       10D+1       -0.00010   0.00007  -0.00006   0.00012  -0.00023
 121       10D-1        0.00064   0.00016  -0.00126   0.00162   0.00193
 122       10D+2        0.00025  -0.00038  -0.00071   0.00049   0.00081
 123       10D-2       -0.00003  -0.00042   0.00019  -0.00009  -0.00001
 124       11F 0       -0.00000  -0.00004  -0.00017   0.00026  -0.00001
 125       11F+1        0.00001  -0.00002  -0.00006   0.00007   0.00004
 126       11F-1       -0.00021   0.00009  -0.00061   0.00060  -0.00058
 127       11F+2       -0.00021   0.00001   0.00034  -0.00032  -0.00055
 128       11F-2       -0.00001   0.00004  -0.00012   0.00013  -0.00004
 129       11F+3       -0.00001   0.00002   0.00010  -0.00012  -0.00004
 130       11F-3        0.00004   0.00001   0.00070  -0.00074   0.00012
 131 5   H  1S         -0.00000   0.00004  -0.00034  -0.00032  -0.00002
 132        2S         -0.00002   0.00076  -0.00153  -0.00162  -0.00015
 133        3S         -0.00016   0.00007  -0.00417  -0.00283  -0.00080
 134        4PX         0.00003   0.00009  -0.00109  -0.00120   0.00009
 135        4PY        -0.00001   0.00003  -0.00070  -0.00072   0.00001
 136        4PZ        -0.00002  -0.00007   0.00004  -0.00005  -0.00001
 137 6   H  1S         -0.00001  -0.00015  -0.00038  -0.00040  -0.00004
 138        2S         -0.00011  -0.00031  -0.00135  -0.00192  -0.00025
 139        3S         -0.00029   0.00128  -0.00215  -0.00265  -0.00136
 140        4PX         0.00001   0.00008   0.00008   0.00006   0.00002
 141        4PY        -0.00003   0.00011   0.00071   0.00075  -0.00006
 142        4PZ        -0.00000  -0.00005  -0.00109  -0.00128   0.00006
 143 7   H  1S         -0.00001  -0.00010  -0.00034  -0.00029  -0.00004
 144        2S         -0.00017   0.00038  -0.00150  -0.00178  -0.00038
 145        3S         -0.00022   0.00064  -0.00472  -0.00270  -0.00102
 146        4PX        -0.00001   0.00006   0.00098   0.00110  -0.00005
 147        4PY        -0.00001   0.00012  -0.00076  -0.00086   0.00003
 148        4PZ        -0.00004   0.00002   0.00014   0.00003  -0.00005
 149 8   H  1S         -0.00000   0.00004   0.00034  -0.00032  -0.00002
 150        2S         -0.00002   0.00076   0.00153  -0.00162  -0.00015
 151        3S         -0.00016   0.00007   0.00417  -0.00283  -0.00080
 152        4PX         0.00003   0.00009   0.00109  -0.00120   0.00009
 153        4PY        -0.00001   0.00003   0.00070  -0.00072   0.00001
 154        4PZ         0.00002   0.00007   0.00004   0.00005   0.00001
 155 9   H  1S         -0.00001  -0.00010   0.00034  -0.00029  -0.00004
 156        2S         -0.00017   0.00038   0.00150  -0.00178  -0.00038
 157        3S         -0.00022   0.00064   0.00472  -0.00270  -0.00102
 158        4PX        -0.00001   0.00006  -0.00098   0.00110  -0.00005
 159        4PY        -0.00001   0.00012   0.00076  -0.00086   0.00003
 160        4PZ         0.00004  -0.00002   0.00014  -0.00003   0.00005
 161 10  H  1S         -0.00001  -0.00015   0.00038  -0.00040  -0.00004
 162        2S         -0.00011  -0.00031   0.00135  -0.00192  -0.00025
 163        3S         -0.00029   0.00128   0.00215  -0.00265  -0.00136
 164        4PX         0.00001   0.00008  -0.00008   0.00006   0.00002
 165        4PY        -0.00003   0.00011  -0.00071   0.00075  -0.00006
 166        4PZ         0.00000   0.00005  -0.00109   0.00128  -0.00006
                           6         7         8         9        10
                           O         O         O         O         O
     Eigenvalues --    -6.01669  -6.01668  -6.01089  -1.03118  -0.82284
   1 1   O  1S         -0.00014   0.00000  -0.00008  -0.08086   0.04368
   2        2S         -0.00031   0.00000  -0.00019  -0.19037   0.10354
   3        3S          0.00045   0.00000   0.00052   0.26916  -0.15157
   4        4S          0.00176   0.00000  -0.00069   0.37349  -0.20776
   5        5S          0.00492   0.00000   0.00326   0.11893  -0.09544
   6        6PX        -0.00045   0.00000  -0.00027  -0.08829   0.01329
   7        6PY        -0.00015   0.00000  -0.00016  -0.04550  -0.00259
   8        6PZ         0.00000   0.00000   0.00000   0.00000   0.00000
   9        7PX        -0.00148   0.00000   0.00019  -0.07984   0.01488
  10        7PY        -0.00085   0.00000  -0.00051  -0.04211  -0.00098
  11        7PZ         0.00000   0.00055   0.00000   0.00000   0.00000
  12        8PX        -0.00203   0.00000  -0.00151  -0.00781   0.00115
  13        8PY        -0.00109   0.00000  -0.00119  -0.00473  -0.00156
[...]
   9        7PX        -0.29639
  10        7PY        -0.17107
  11        7PZ         0.00000
  12        8PX         0.14976
  13        8PY         0.11617
  14        8PZ         0.00000
  15        9D 0        0.00763
  16        9D+1        0.00000
  17        9D-1        0.00000
  18        9D+2       -0.00808
  19        9D-2       -0.00837
  20       10D 0       -0.05592
  21       10D+1        0.00000
  22       10D-1        0.00000
  23       10D+2        0.05662
  24       10D-2        0.07411
  25       11F 0        0.00000
  26       11F+1        0.01687
  27       11F-1        0.00981
  28       11F+2        0.00000
  29       11F-2        0.00000
  30       11F+3       -0.00296
  31       11F-3       -0.02504
  32 2   S  1S         -0.02445
  33        2S          0.08747
  34        3S          0.15475
  35        4S         -0.12420
  36        5S         -0.02810
  37        6PX        -0.00621
  38        6PY        -0.00012
  39        6PZ         0.00000
  40        7PX         0.02154
  41        7PY        -0.00021
  42        7PZ         0.00000
  43        8PX         0.02136
  44        8PY         0.03945
  45        8PZ         0.00000
  46        9PX        -0.29606
  47        9PY        -0.19810
  48        9PZ         0.00000
  49       10PX         0.18057
  50       10PY         0.09832
  51       10PZ         0.00000
  52       11D 0        0.04021
  53       11D+1        0.00000
  54       11D-1        0.00000
  55       11D+2       -0.03508
  56       11D-2       -0.05276
  57       12D 0        0.09670
  58       12D+1        0.00000
  59       12D-1        0.00000
  60       12D+2       -0.14864
  61       12D-2       -0.11120
  62       13F 0        0.00000
  63       13F+1        0.05718
  64       13F-1        0.01089
  65       13F+2        0.00000
  66       13F-2        0.00000
  67       13F+3       -0.02567
  68       13F-3       -0.06827
  69 3   C  1S          0.00335
  70        2S         -0.00674
  71        3S          0.04863
  72        4S         -0.20981
  73        5S          0.39830
  74        6PX        -0.00122
  75        6PY         0.00153
  76        6PZ         0.00061
  77        7PX        -0.02748
  78        7PY        -0.07888
  79        7PZ        -0.02972
  80        8PX         0.02298
  81        8PY         0.08265
  82        8PZ         0.02809
  83        9D 0        0.00165
  84        9D+1       -0.00282
  85        9D-1       -0.00877
  86        9D+2       -0.00130
  87        9D-2       -0.00841
  88       10D 0       -0.05163
  89       10D+1        0.00450
  90       10D-1        0.02510
  91       10D+2        0.03333
  92       10D-2        0.04009
  93       11F 0       -0.00367
  94       11F+1        0.00204
  95       11F-1       -0.00676
  96       11F+2       -0.00206
  97       11F-2        0.00325
  98       11F+3       -0.00048
  99       11F-3       -0.00166
 100 4   C  1S          0.00335
 101        2S         -0.00674
 102        3S          0.04863
 103        4S         -0.20981
 104        5S          0.39830
 105        6PX        -0.00122
 106        6PY         0.00153
 107        6PZ        -0.00061
 108        7PX        -0.02748
 109        7PY        -0.07888
 110        7PZ         0.02972
 111        8PX         0.02298
 112        8PY         0.08265
 113        8PZ        -0.02809
 114        9D 0        0.00165
 115        9D+1        0.00282
 116        9D-1        0.00877
 117        9D+2       -0.00130
 118        9D-2       -0.00841
 119       10D 0       -0.05163
 120       10D+1       -0.00450
 121       10D-1       -0.02510
 122       10D+2        0.03333
 123       10D-2        0.04009
 124       11F 0        0.00367
 125       11F+1        0.00204
 126       11F-1       -0.00676
 127       11F+2        0.00206
 128       11F-2       -0.00325
 129       11F+3       -0.00048
 130       11F-3       -0.00166
 131 5   H  1S         -0.00305
 132        2S         -0.07519
 133        3S         -0.00493
 134        4PX        -0.00974
 135        4PY        -0.00326
 136        4PZ         0.00738
 137 6   H  1S          0.01686
 138        2S          0.02877
 139        3S         -0.12370
 140        4PX        -0.00826
 141        4PY        -0.01068
 142        4PZ         0.00429
 143 7   H  1S          0.01152
 144        2S         -0.03956
 145        3S         -0.05897
 146        4PX        -0.00556
 147        4PY        -0.01333
 148        4PZ        -0.00124
 149 8   H  1S         -0.00305
 150        2S         -0.07519
 151        3S         -0.00493
 152        4PX        -0.00974
 153        4PY        -0.00326
 154        4PZ        -0.00738
 155 9   H  1S          0.01152
 156        2S         -0.03956
 157        3S         -0.05897
 158        4PX        -0.00556
 159        4PY        -0.01333
 160        4PZ         0.00124
 161 10  H  1S          0.01686
 162        2S          0.02877
 163        3S         -0.12370
 164        4PX        -0.00826
 165        4PY        -0.01068
 166        4PZ        -0.00429
          Condensed to atoms (all electrons):
               1          2          3          4          5          6
     1  O    8.236390   0.388843  -0.054287  -0.054287   0.005901   0.002574
     2  S    0.388843  14.723463   0.284509   0.284509  -0.005522  -0.022129
     3  C   -0.054287   0.284509   5.073864  -0.056810   0.348578   0.386746
     4  C   -0.054287   0.284509  -0.056810   5.073864   0.000625   0.008773
     5  H    0.005901  -0.005522   0.348578   0.000625   0.554812  -0.015454
     6  H    0.002574  -0.022129   0.386746   0.008773  -0.015454   0.502154
     7  H    0.010536  -0.038025   0.396100  -0.010877  -0.017318  -0.020061
     8  H    0.005901  -0.005522   0.000625   0.348578  -0.002366  -0.000825
     9  H    0.010536  -0.038025  -0.010877   0.396100   0.002170  -0.000600
    10  H    0.002574  -0.022129   0.008773   0.386746  -0.000825  -0.000177
               7          8          9         10
     1  O    0.010536   0.005901   0.010536   0.002574
     2  S   -0.038025  -0.005522  -0.038025  -0.022129
     3  C    0.396100   0.000625  -0.010877   0.008773
     4  C   -0.010877   0.348578   0.396100   0.386746
     5  H   -0.017318  -0.002366   0.002170  -0.000825
     6  H   -0.020061  -0.000825  -0.000600  -0.000177
     7  H    0.526980   0.002170   0.009946  -0.000600
     8  H    0.002170   0.554812  -0.017318  -0.015454
     9  H    0.009946  -0.017318   0.526980  -0.020061
    10  H   -0.000600  -0.015454  -0.020061   0.502154
 Mulliken charges:
               1
     1  O   -0.554683
     2  S    0.450027
     3  C   -0.377220
     4  C   -0.377220
     5  H    0.129399
     6  H    0.159000
     7  H    0.141149
     8  H    0.129399
     9  H    0.141149
    10  H    0.159000
 Sum of Mulliken charges =  -0.00000
 Mulliken charges with hydrogens summed into heavy atoms:
               1
     1  O   -0.554683
     2  S    0.450027
     3  C    0.052328
     4  C    0.052328
 Electronic spatial extent (au):  <R**2>=            358.5160
 Charge=             -0.0000 electrons
 Dipole moment (field-independent basis, Debye):
    X=             -2.5502    Y=             -3.2290    Z=              0.0000  Tot=              4.1146
 Quadrupole moment (field-independent basis, Debye-Ang):
   XX=            -35.2368   YY=            -34.0051   ZZ=            -28.2733
   XY=             -2.1858   XZ=             -0.0000   YZ=              0.0000
 Traceless Quadrupole moment (field-independent basis, Debye-Ang):
   XX=             -2.7317   YY=             -1.5001   ZZ=              4.2318
   XY=             -2.1858   XZ=             -0.0000   YZ=              0.0000
 Octapole moment (field-independent basis, Debye-Ang**2):
  XXX=             -1.7827  YYY=             -0.7138  ZZZ=             -0.0000  XYY=             -2.1150
  XXY=             -5.2333  XXZ=             -0.0000  XZZ=             -0.2304  YZZ=              2.1243
  YYZ=              0.0000  XYZ=              0.0000
 Hexadecapole moment (field-independent basis, Debye-Ang**3):
 XXXX=           -105.3596 YYYY=           -161.9646 ZZZZ=           -203.0231 XXXY=            -25.3226
 XXXZ=             -0.0000 YYYX=            -29.1501 YYYZ=             -0.0000 ZZZX=             -0.0000
 ZZZY=              0.0000 XXYY=            -43.6779 XXZZ=            -54.1090 YYZZ=            -63.4569
 XXYZ=              0.0000 YYXZ=             -0.0000 ZZXY=             -8.7979
 N-N= 1.848768855284D+02 E-N=-1.678547704554D+03  KE= 5.516350183508D+02
 Symmetry A'   KE= 4.700986123820D+02
 Symmetry A"   KE= 8.153640596885D+01
 Orbital energies and kinetic energies (alpha):
                                 1                 2
   1         O               -89.114703        121.138489
   2         O               -19.157556         29.115087
   3         O               -10.251627         15.954151
   4         O               -10.251620         15.954411
   5         O                -8.081005         18.499365
   6         O                -6.016691         17.544711
   7         O                -6.016676         17.547847
   8         O                -6.010894         17.564716
   9         O                -1.031178          2.684657
  10         O                -0.822841          1.857181
  11         O                -0.749499          1.398732
  12         O                -0.619401          2.114752
  13         O                -0.490309          1.087356
  14         O                -0.478388          1.198501
  15         O                -0.476469          1.406269
  16         O                -0.442652          1.030985
  17         O                -0.415364          2.074195
  18         O                -0.408924          1.336227
  19         O                -0.366150          2.017824
  20         O                -0.284538          2.093992
  21         O                -0.242112          2.198061
  22         V                 0.038216          0.655742
  23         V                 0.039562          1.441786
  24         V                 0.040866          1.577394
  25         V                 0.077988          1.336497
  26         V                 0.090068          0.653638
  27         V                 0.098393          0.888382
  28         V                 0.104553          0.899938
  29         V                 0.128057          0.668795
  30         V                 0.149065          0.881203
  31         V                 0.192573          0.630012
  32         V                 0.199823          0.849016
  33         V                 0.230489          1.172050
  34         V                 0.230858          0.788184
  35         V                 0.238841          1.026568
  36         V                 0.272286          1.052301
  37         V                 0.318618          0.846713
  38         V                 0.329615          1.423767
  39         V                 0.342289          1.396204
  40         V                 0.378055          1.339908
  41         V                 0.378221          1.099014
  42         V                 0.418050          1.296070
  43         V                 0.433425          1.901340
  44         V                 0.435924          1.191497
  45         V                 0.455011          1.426547
  46         V                 0.463989          1.444008
  47         V                 0.468080          1.559069
  48         V                 0.491698          1.656083
  49         V                 0.505943          1.703025
  50         V                 0.530949          1.471888
  51         V                 0.540278          1.271164
  52         V                 0.586935          1.434627
  53         V                 0.624458          1.360351
  54         V                 0.721089          2.028146
  55         V                 0.724225          1.750721
  56         V                 0.792101          1.432898
  57         V                 0.803343          2.000154
  58         V                 0.804606          1.658180
  59         V                 0.849865          2.094647
  60         V                 0.868776          2.512528
  61         V                 0.890908          1.891441
  62         V                 0.894418          1.641752
  63         V                 0.979005          2.115119
  64         V                 0.989616          1.696188
  65         V                 0.994446          1.921575
  66         V                 1.048077          2.598529
  67         V                 1.064820          1.919912
  68         V                 1.387380          2.763485
  69         V                 1.414524          3.394655
  70         V                 1.429967          3.022286
  71         V                 1.437402          3.182308
  72         V                 1.472122          2.838102
  73         V                 1.487587          2.615359
  74         V                 1.503183          3.412976
  75         V                 1.511069          3.247790
  76         V                 1.513727          2.598187
  77         V                 1.529713          2.911881
  78         V                 1.563159          3.314496
  79         V                 1.581093          3.274788
  80         V                 1.602715          3.701022
  81         V                 1.617301          3.495112
  82         V                 1.631516          3.470835
  83         V                 1.643343          3.703075
  84         V                 1.657124          3.652677
  85         V                 1.682273          3.202450
  86         V                 1.683983          3.253764
  87         V                 1.740001          3.732883
  88         V                 1.773854          3.217621
  89         V                 1.810504          3.149195
  90         V                 1.826464          2.896978
  91         V                 1.890629          3.404418
  92         V                 1.946092          3.437931
  93         V                 2.025651          3.328769
  94         V                 2.027792          3.373613
  95         V                 2.107877          3.330003
  96         V                 2.116773          3.320620
  97         V                 2.140295          3.394857
  98         V                 2.199706          3.769182
  99         V                 2.266617          3.834518
 100         V                 2.268861          3.724438
 101         V                 2.281882          3.612274
 102         V                 2.284147          3.543972
 103         V                 2.312602          3.972155
 104         V                 2.330901          3.824705
 105         V                 2.334452          4.364889
 106         V                 2.339549          3.923440
 107         V                 2.430743          4.285256
 108         V                 2.523950          3.718166
 109         V                 2.528610          3.542807
 110         V                 2.557110          3.674005
 111         V                 2.579399          3.712912
 112         V                 2.616923          3.983090
 113         V                 2.663397          3.789322
 114         V                 2.671774          4.343493
 115         V                 2.698656          4.268826
 116         V                 2.757681          4.857758
 117         V                 2.811320          4.867529
 118         V                 2.814485          4.214123
 119         V                 2.908316          5.232249
 120         V                 2.974853          5.588717
 121         V                 3.019297          7.089625
 122         V                 3.058008          4.943829
 123         V                 3.077149          4.953275
 124         V                 3.095922          4.810324
 125         V                 3.105459          4.868370
 126         V                 3.119942          4.556124
 127         V                 3.274665          4.302140
 128         V                 3.332753          4.437201
 129         V                 3.367799          4.334263
 130         V                 3.380635          4.632619
 131         V                 3.417515          4.474564
 132         V                 3.426686          5.319192
 133         V                 3.473073          4.751659
 134         V                 3.543108          4.916882
 135         V                 3.550957          4.983977
 136         V                 3.584407          4.773295
 137         V                 3.593565          5.241416
 138         V                 3.594841          4.738625
 139         V                 3.738914          5.037221
 140         V                 3.820706          5.389776
 141         V                 3.965421          7.773790
 142         V                 4.176109          5.823830
 143         V                 4.216249          5.795641
 144         V                 4.234424          5.810305
 145         V                 4.235036          5.831156
 146         V                 4.420464          6.028589
 147         V                 4.456678          5.984954
 148         V                 5.207800          6.438432
 149         V                 5.208394          6.437780
 150         V                 5.282501          6.592131
 151         V                 5.316867          6.650558
 152         V                 5.456080          7.081761
 153         V                 5.458361          7.076214
 154         V                 5.545717          8.387905
 155         V                 6.359937          9.339415
 156         V                 6.388620          9.382474
 157         V                 6.723049          9.622058
 158         V                 6.747945          9.641092
 159         V                 6.912443         10.266140
 160         V                 9.120129         27.956086
 161         V                 9.426799         28.245945
 162         V                 9.503021         27.838691
 163         V                20.518181         36.593660
 164         V                22.256761         55.546843
 165         V                22.260154         55.744159
 166         V                43.586249        108.469543
 Total kinetic energy from orbitals= 5.516350183508D+02
 No NMR shielding tensors so no spin-rotation constants.
 Leave Link  601 at Sat Nov 15 13:11:16 2025, MaxMem=  1048576000 cpu:               0.9 elap:               0.3
 (Enter /home/pcmt/gaussian/g16.C.01/g16/l9999.exe)

 Test job not archived.
 1\1\GINC-U-0-13\SP\RPBE1PBE\Gen\C2H6O1S1\VALLET\15-Nov-2025\0\\#p PBE1
 PBE/GEN GFInput GFOldPrint 5D 7F IOP(4/69=2, 6/7=3) EmpiricalDispersio
 n=GD3BJ Scf=(NoVarAcc,MaxCycle=200,conver=8) Integral=(Grid=UltraFine)
  Guess=CheckPoint Geom=CheckPoint Symm=Loose\\DMSO.pbe0-d3bj-cosmo.opt
 g-freq.chk\\0,1\O,0,0.0000000012,-0.2670228392,0.1354696983\S,0,0.,-0.
 7935245656,1.5427762489\C,0,1.3436564157,0.0214031708,2.3925283413\C,0
 ,-1.3436564173,0.0214031704,2.392528339\H,0,1.3123577425,-0.2598371732
 ,3.4463599964\H,0,2.270465825,-0.3323671909,1.9408254609\H,0,1.2407279
 38,1.1010748937,2.2711642336\H,0,-1.3123577459,-0.2598371735,3.4463599
 942\H,0,-1.2407279397,1.1010748933,2.2711642315\H,0,-2.2704658257,-0.3
 323671915,1.940825457\\Version=ES64L-G16RevC.01\State=1-A'\HF=-552.974
 6459\RMSD=6.926e-09\Dipole=0.,0.1551832,1.6113589\Quadrupole=3.1462196
 ,0.0314317,-3.1776513,0.,0.,0.5254114\PG=CS [SG(O1S1),X(C2H6)]\\@


 What some people mistake for the high cost
 of living is really the cost of living high.
                              -- Doug Larson
 Job cpu time:       0 days  0 hours  0 minutes 59.9 seconds.
 Elapsed time:       0 days  0 hours  0 minutes 15.5 seconds.
 File lengths (MBytes):  RWF=     14 Int=      0 D2E=      0 Chk=      5 Scr=      1
 Normal termination of Gaussian 16 at Sat Nov 15 13:11:16 2025.
