 Entering Gaussian System, Link 0=/home/pcmt/gaussian/g16.C.01/g16/g16
 Initial command:
 /home/pcmt/gaussian/g16.C.01/g16/l1.exe "/state/partition2/vallet/1061542.phlam-s-sakura/Gau-159973.inp" -scrdir="/state/partition2/vallet/1061542.phlam-s-sakura/"
 Entering Link 1 = /home/pcmt/gaussian/g16.C.01/g16/l1.exe PID=    159974.
  
 Copyright (c) 1988-2019, Gaussian, Inc.  All Rights Reserved.
  
 This is part of the Gaussian(R) 16 program.  It is based on
 the Gaussian(R) 09 system (copyright 2009, Gaussian, Inc.),
 the Gaussian(R) 03 system (copyright 2003, Gaussian, Inc.),
 the Gaussian(R) 98 system (copyright 1998, Gaussian, Inc.),
 the Gaussian(R) 94 system (copyright 1995, Gaussian, Inc.),
 the Gaussian 92(TM) system (copyright 1992, Gaussian, Inc.),
 the Gaussian 90(TM) system (copyright 1990, Gaussian, Inc.),
 the Gaussian 88(TM) system (copyright 1988, Gaussian, Inc.),
 the Gaussian 86(TM) system (copyright 1986, Carnegie Mellon
 University), and the Gaussian 82(TM) system (copyright 1983,
 Carnegie Mellon University). Gaussian is a federally registered
 trademark of Gaussian, Inc.
  
 This software contains proprietary and confidential information,
 including trade secrets, belonging to Gaussian, Inc.
  
 This software is provided under written license and may be
 used, copied, transmitted, or stored only in accord with that
 written license.
  
 The following legend is applicable only to US Government
 contracts under FAR:
  
                    RESTRICTED RIGHTS LEGEND
  
 Use, reproduction and disclosure by the US Government is
 subject to restrictions as set forth in subparagraphs (a)
 and (c) of the Commercial Computer Software - Restricted
 Rights clause in FAR 52.227-19.
  
 Gaussian, Inc.
 340 Quinnipiac St., Bldg. 40, Wallingford CT 06492
  
  
 ---------------------------------------------------------------
 Warning -- This program may not be used in any manner that
 competes with the business of Gaussian, Inc. or will provide
 assistance to any competitor of Gaussian, Inc.  The licensee
 of this program is prohibited from giving any competitor of
 Gaussian, Inc. access to this program.  By using this program,
 the user acknowledges that Gaussian, Inc. is engaged in the
 business of creating and licensing software in the field of
 computational chemistry and represents and warrants to the
 licensee that it is not a competitor of Gaussian, Inc. and that
 it will not use this program in any manner prohibited above.
 ---------------------------------------------------------------
  

 Cite this work as:
 Gaussian 16, Revision C.01,
 M. J. Frisch, G. W. Trucks, H. B. Schlegel, G. E. Scuseria, 
 M. A. Robb, J. R. Cheeseman, G. Scalmani, V. Barone, 
 G. A. Petersson, H. Nakatsuji, X. Li, M. Caricato, A. V. Marenich, 
 J. Bloino, B. G. Janesko, R. Gomperts, B. Mennucci, H. P. Hratchian, 
 J. V. Ortiz, A. F. Izmaylov, J. L. Sonnenberg, D. Williams-Young, 
 F. Ding, F. Lipparini, F. Egidi, J. Goings, B. Peng, A. Petrone, 
 T. Henderson, D. Ranasinghe, V. G. Zakrzewski, J. Gao, N. Rega, 
 G. Zheng, W. Liang, M. Hada, M. Ehara, K. Toyota, R. Fukuda, 
 J. Hasegawa, M. Ishida, T. Nakajima, Y. Honda, O. Kitao, H. Nakai, 
 T. Vreven, K. Throssell, J. A. Montgomery, Jr., J. E. Peralta, 
 F. Ogliaro, M. J. Bearpark, J. J. Heyd, E. N. Brothers, K. N. Kudin, 
 V. N. Staroverov, T. A. Keith, R. Kobayashi, J. Normand, 
 K. Raghavachari, A. P. Rendell, J. C. Burant, S. S. Iyengar, 
 J. Tomasi, M. Cossi, J. M. Millam, M. Klene, C. Adamo, R. Cammi, 
 J. W. Ochterski, R. L. Martin, K. Morokuma, O. Farkas, 
 J. B. Foresman, and D. J. Fox, Gaussian, Inc., Wallingford CT, 2019.
 
 ******************************************
 Gaussian 16:  ES64L-G16RevC.01  3-Jul-2019
                28-Oct-2025 
 ******************************************
 %mem=8000Mb
 %NProc=4
 Will use up to    4 processors via shared memory.
 %chk=DMSO.pbe0-d3bj-cosmo.optg-freq.chk
 ----------------------------------------------------------------------
 #p PBE1PBE/GEN GFInput GFOldPrint 5D 7F IOP(4/69=2, 6/7=3) EmpiricalDi
 spersion=GD3BJ Scf=(NoVarAcc,MaxCycle=200,conver=8) Integral=(Grid=Ult
 raFine) Guess=CheckPoint Geom=CheckPoint Symm=Loose Opt=(ReadFc) Freq=
 (Raman, InternalModes) SCRF=(COSMO, Solvent=Water, Read)
 ----------------------------------------------------------------------
 1/10=3,18=20,19=15,26=6,29=2,38=1,40=2/1,3;
 2/9=110,12=2,17=4,18=3,40=1/2;
 3/5=7,8=11,11=2,14=-4,24=11,25=1,30=1,70=22103,71=1,72=1,74=-13,75=-5,116=-2,124=41/1,2,3;
 4/5=1,69=2/1;
 5/5=2,6=8,7=200,38=6,53=1/2;
 6/7=3,8=2,9=2,10=2,28=1/1;
 7//1,2,3,16;
 1/18=20,19=15,26=6/3(2);
 2/9=110/2;
 99//99;
 2/9=110/2;
 3/5=7,6=1,8=11,11=2,14=-2,25=1,30=1,70=22105,71=1,72=1,74=-13,75=-5,82=7,124=41/1,2,3;
 4/5=5,16=3,69=2/1;
 5/5=2,6=8,7=200,38=1,53=1/2;
 7//1,2,3,16;
 1/18=20,19=15,26=6/3(-5);
 2/9=110/2;
 6/7=3,8=2,9=2,10=2,19=2,28=1/1;
 99/9=1/99;
 Leave Link    1 at Tue Oct 28 16:27:41 2025, MaxMem=  1048576000 cpu:               0.5 elap:               0.1
 (Enter /home/pcmt/gaussian/g16.C.01/g16/l101.exe)
 ----------------------------------
 DMSO.pbe0-d3bj-cosmo.optg-freq.chk
 ----------------------------------
 Structure from the checkpoint file:  "DMSO.pbe0-d3bj-cosmo.optg-freq.chk"
 Charge =  0 Multiplicity = 1
 Redundant internal coordinates found in file.  (old form).
 O,0,0.,0.,-0.0356233663
 S,0,0.,0.,1.4933655851
 C,0,1.5326675626,0.,2.3928759548
 C,0,-1.5326675626,0.,2.3928759548
 H,0,1.2445453649,0.,3.4450468414
 H,0,2.1032114895,-0.8995667263,2.1616035472
 H,0,2.1032114895,0.8995667263,2.1616035472
 H,0,-1.2445453649,0.,3.4450468414
 H,0,-2.1032114895,0.8995667263,2.1616035472
 H,0,-2.1032114895,-0.8995667263,2.1616035472
 Recover connectivity data from disk.
 ITRead=  0  0  0  0  0  0  0  0  0  0
 MicOpt= -1 -1 -1 -1 -1 -1 -1 -1 -1 -1
 NAtoms=     10 NQM=       10 NQMF=       0 NMMI=      0 NMMIF=      0
                NMic=       0 NMicF=      0.
                    Isotopes and Nuclear Properties:
 (Nuclear quadrupole moments (NQMom) in fm**2, nuclear magnetic moments (NMagM)
  in nuclear magnetons)

  Atom         1           2           3           4           5           6           7           8           9          10
 IAtWgt=          16          32          12          12           1           1           1           1           1           1
 AtmWgt=  15.9949146  31.9720718  12.0000000  12.0000000   1.0078250   1.0078250   1.0078250   1.0078250   1.0078250   1.0078250
 NucSpn=           0           0           0           0           1           1           1           1           1           1
 AtZEff=   5.6000000  13.6000000   3.6000000   3.6000000   1.0000000   1.0000000   1.0000000   1.0000000   1.0000000   1.0000000
 NQMom=    0.0000000   0.0000000   0.0000000   0.0000000   0.0000000   0.0000000   0.0000000   0.0000000   0.0000000   0.0000000
 NMagM=    0.0000000   0.0000000   0.0000000   0.0000000   2.7928460   2.7928460   2.7928460   2.7928460   2.7928460   2.7928460
 AtZNuc=   8.0000000  16.0000000   6.0000000   6.0000000   1.0000000   1.0000000   1.0000000   1.0000000   1.0000000   1.0000000
 Leave Link  101 at Tue Oct 28 16:27:41 2025, MaxMem=  1048576000 cpu:               0.8 elap:               0.3
 (Enter /home/pcmt/gaussian/g16.C.01/g16/l103.exe)

 GradGradGradGradGradGradGradGradGradGradGradGradGradGradGradGradGradGrad
 Berny optimization.
 Initialization pass.
 Force constant matrix read from checkpoint file:
 "DMSO.pbe0-d3bj-cosmo.optg-freq.chk"
 NVar current=  36 chk=  36 common=  36.
                           ----------------------------
                           !    Initial Parameters    !
                           ! (Angstroms and Degrees)  !
 --------------------------                            --------------------------
 ! Name  Definition              Value          Derivative Info.                !
 --------------------------------------------------------------------------------
 ! R1    R(1,2)                  1.529          D2E/DX2 =    0.4068             !
 ! R2    R(2,3)                  1.7771         D2E/DX2 =    0.2138             !
 ! R3    R(2,4)                  1.7771         D2E/DX2 =    0.2138             !
 ! R4    R(3,5)                  1.0909         D2E/DX2 =    0.3492             !
 ! R5    R(3,6)                  1.0901         D2E/DX2 =    0.3437             !
 ! R6    R(3,7)                  1.0901         D2E/DX2 =    0.3437             !
 ! R7    R(4,8)                  1.0909         D2E/DX2 =    0.3492             !
 ! R8    R(4,9)                  1.0901         D2E/DX2 =    0.3437             !
 ! R9    R(4,10)                 1.0901         D2E/DX2 =    0.3437             !
 ! A1    A(1,2,3)              120.4083         D2E/DX2 =    0.0886             !
 ! A2    A(1,2,4)              120.4083         D2E/DX2 =    0.0886             !
 ! A3    A(3,2,4)              119.1833         D2E/DX2 =    0.0967             !
 ! A4    A(2,3,5)              105.0941         D2E/DX2 =    0.1                !
 ! A5    A(2,3,6)              110.1218         D2E/DX2 =    0.1087             !
 ! A6    A(2,3,7)              110.1218         D2E/DX2 =    0.1087             !
 ! A7    A(5,3,6)              110.0518         D2E/DX2 =    0.0476             !
 ! A8    A(5,3,7)              110.0518         D2E/DX2 =    0.0476             !
 ! A9    A(6,3,7)              111.2269         D2E/DX2 =    0.056              !
 ! A10   A(2,4,8)              105.0941         D2E/DX2 =    0.1                !
 ! A11   A(2,4,9)              110.1218         D2E/DX2 =    0.1087             !
 ! A12   A(2,4,10)             110.1218         D2E/DX2 =    0.1087             !
 ! A13   A(8,4,9)              110.0518         D2E/DX2 =    0.0476             !
 ! A14   A(8,4,10)             110.0518         D2E/DX2 =    0.0476             !
 ! A15   A(9,4,10)             111.2269         D2E/DX2 =    0.056              !
 ! D1    D(1,2,3,5)            180.0            D2E/DX2 =    0.0054             !
 ! D2    D(1,2,3,6)            -61.5089         D2E/DX2 =    0.0065             !
 ! D3    D(1,2,3,7)             61.5089         D2E/DX2 =    0.0065             !
 ! D4    D(4,2,3,5)              0.0            D2E/DX2 =    0.0017             !
 ! D5    D(4,2,3,6)            118.4911         D2E/DX2 =    0.0067             !
 ! D6    D(4,2,3,7)           -118.4911         D2E/DX2 =    0.0067             !
 ! D7    D(1,2,4,8)            180.0            D2E/DX2 =    0.0054             !
 ! D8    D(1,2,4,9)            -61.5089         D2E/DX2 =    0.0065             !
 ! D9    D(1,2,4,10)            61.5089         D2E/DX2 =    0.0065             !
 ! D10   D(3,2,4,8)              0.0            D2E/DX2 =    0.0017             !
 ! D11   D(3,2,4,9)            118.4911         D2E/DX2 =    0.0067             !
 ! D12   D(3,2,4,10)          -118.4911         D2E/DX2 =    0.0067             !
 --------------------------------------------------------------------------------
 Trust Radius=3.00D-01 FncErr=5.00D-06 GrdErr=5.00D-06 EigMax=2.50D+02 EigMin=1.00D-04
 Number of steps in this run=     46 maximum allowed number of steps=    100.
 GradGradGradGradGradGradGradGradGradGradGradGradGradGradGradGradGradGrad

 Leave Link  103 at Tue Oct 28 16:27:42 2025, MaxMem=  1048576000 cpu:               0.1 elap:               0.1
 (Enter /home/pcmt/gaussian/g16.C.01/g16/l202.exe)
                          Input orientation:                          
 ---------------------------------------------------------------------
 Center     Atomic      Atomic             Coordinates (Angstroms)
 Number     Number       Type             X           Y           Z
 ---------------------------------------------------------------------
      1          8           0       -0.000000   -0.000000   -0.035623
      2         16           0       -0.000000   -0.000000    1.493366
      3          6           0        1.532668    0.000000    2.392876
      4          6           0       -1.532668   -0.000000    2.392876
      5          1           0        1.244545    0.000000    3.445047
      6          1           0        2.103211   -0.899567    2.161604
      7          1           0        2.103211    0.899567    2.161604
      8          1           0       -1.244545   -0.000000    3.445047
      9          1           0       -2.103211    0.899567    2.161604
     10          1           0       -2.103211   -0.899567    2.161604
 ---------------------------------------------------------------------
                    Distance matrix (angstroms):
                    1          2          3          4          5
     1  O    0.000000
     2  S    1.528989   0.000000
     3  C    2.871703   1.777129   0.000000
     4  C    2.871703   1.777129   3.065335   0.000000
     5  H    3.696479   2.314725   1.090907   2.969844   0.000000
     6  H    3.171833   2.383120   1.090059   3.752642   1.787108
     7  H    3.171833   2.383120   1.090059   3.752642   1.787108
     8  H    3.696479   2.314725   2.969844   1.090907   2.489091
     9  H    3.171833   2.383120   3.752642   1.090059   3.696474
    10  H    3.171833   2.383120   3.752642   1.090059   3.696474
                    6          7          8          9         10
     6  H    0.000000
     7  H    1.799133   0.000000
     8  H    3.696474   3.696474   0.000000
     9  H    4.575027   4.206423   1.787108   0.000000
    10  H    4.206423   4.575027   1.787108   1.799133   0.000000
 Stoichiometry    C2H6OS
 Framework group  C2V[C2(SO),SGV(C2H2),X(H4)]
 Deg. of freedom     8
 Full point group                 C2V     NOp   4
 RotChk:  IX=0 Diff= 2.90D-16
 Largest Abelian subgroup         C2V     NOp   4
 Largest concise Abelian subgroup C2V     NOp   4
                         Standard orientation:                         
 ---------------------------------------------------------------------
 Center     Atomic      Atomic             Coordinates (Angstroms)
 Number     Number       Type             X           Y           Z
 ---------------------------------------------------------------------
      1          8           0       -0.000000    0.000000    1.651335
      2         16           0       -0.000000    0.000000    0.122346
      3          6           0        0.000000    1.532668   -0.777164
      4          6           0       -0.000000   -1.532668   -0.777164
      5          1           0        0.000000    1.244545   -1.829335
      6          1           0       -0.899567    2.103211   -0.545892
      7          1           0        0.899567    2.103211   -0.545892
      8          1           0       -0.000000   -1.244545   -1.829335
      9          1           0        0.899567   -2.103211   -0.545892
     10          1           0       -0.899567   -2.103211   -0.545892
 ---------------------------------------------------------------------
 Rotational constants (GHZ):           7.2851888           6.2706495           3.5232610
 Leave Link  202 at Tue Oct 28 16:27:42 2025, MaxMem=  1048576000 cpu:               0.1 elap:               0.1
 (Enter /home/pcmt/gaussian/g16.C.01/g16/l301.exe)
 General basis read from cards:  (5D, 7F)
 Centers:       2
 Def2TZVP
 ****
 Centers:       1
 Def2TZVP
 ****
 Centers:       3      4
 Def2TZVP
 ****
 Centers:       5      6      7      8      9     10
 Def2TZVP
 ****
 Ernie: Thresh=  0.10000D-02 Tol=  0.10000D-05 Strict=F.
 AO basis set in the form of general basis input (Overlap normalization):
      1 0
 S   6 1.00       0.000000000000
      0.2703238263D+05  0.5722733521D-03
      0.4052387139D+04  0.4435323349D-02
      0.9223272271D+03  0.2302010771D-01
      0.2612407099D+03  0.9282249067D-01
      0.8535464135D+02  0.2937850001D+00
      0.3103503524D+02  0.6740160450D+00
 S   2 1.00       0.000000000000
      0.1226086073D+02  0.6383993703D+00
      0.4998707601D+01  0.3953458713D+00
 S   1 1.00       0.000000000000
      0.1170310816D+01  0.1000000000D+01
 S   1 1.00       0.000000000000
      0.4647474099D+00  0.1000000000D+01
 S   1 1.00       0.000000000000
      0.1850453636D+00  0.1000000000D+01
 P   4 1.00       0.000000000000
      0.6327495480D+02  0.1201833222D-01
      0.1462704938D+02  0.8300542179D-01
      0.4450122346D+01  0.3199174393D+00
      0.1527579965D+01  0.7071554292D+00
 P   1 1.00       0.000000000000
      0.5293511794D+00  0.1000000000D+01
 P   1 1.00       0.000000000000
      0.1747842127D+00  0.1000000000D+01
 D   1 1.00       0.000000000000
      0.2314000000D+01  0.1000000000D+01
 D   1 1.00       0.000000000000
      0.6450000000D+00  0.1000000000D+01
 F   1 1.00       0.000000000000
      0.1428000000D+01  0.1000000000D+01
 ****
      2 0
 S   7 1.00       0.000000000000
      0.6070092810D+05  0.5238007490D-03
      0.9102610685D+04  0.4050632678D-02
      0.2071416601D+04  0.2082700417D-01
      0.5860247682D+03  0.8149685034D-01
      0.1905539502D+03  0.2374911384D+00
      0.6763038426D+02  0.4472617151D+00
      0.2512730691D+02  0.3489191844D+00
 S   3 1.00       0.000000000000
      0.1125746301D+03  0.1004556989D+00
      0.3479555422D+02  0.4339117295D+00
      0.6511555622D+01 -0.1208433059D+01
 S   2 1.00       0.000000000000
      0.3239903226D+01  0.6749812942D+00
      0.1547716088D+01  0.3470879576D+00
 S   1 1.00       0.000000000000
      0.4054103011D+00  0.1000000000D+01
 S   1 1.00       0.000000000000
      0.1455065106D+00  0.1000000000D+01
 P   5 1.00       0.000000000000
      0.5643671603D+03  0.3488692363D-02
      0.1334262438D+03  0.2768512678D-01
      0.4246827119D+02  0.1265940018D+00
      0.1561652758D+02  0.3616592567D+00
      0.6109398847D+01  0.6122203444D+00
 P   1 1.00       0.000000000000
      0.2440416020D+01  0.1000000000D+01
 P   1 1.00       0.000000000000
      0.8388220130D+00  0.1000000000D+01
 P   1 1.00       0.000000000000
      0.3128874690D+00  0.1000000000D+01
 P   1 1.00       0.000000000000
      0.1077010900D+00  0.1000000000D+01
 D   2 1.00       0.000000000000
      0.3756000000D+01  0.1828519746D+00
      0.8120000000D+00  0.9142598730D+00
 D   1 1.00       0.000000000000
      0.2730000000D+00  0.1000000000D+01
 F   1 1.00       0.000000000000
      0.5570000000D+00  0.1000000000D+01
 ****
      3 0
 S   6 1.00       0.000000000000
      0.1357534968D+05  0.6064550360D-03
      0.2035233368D+04  0.4697908888D-02
      0.4632256236D+03  0.2433247765D-01
      0.1312001960D+03  0.9739996831D-01
      0.4285301589D+02  0.3019558425D+00
      0.1558418577D+02  0.6623360914D+00
 S   2 1.00       0.000000000000
      0.6206713851D+01  0.6559530854D+00
      0.2576489653D+01  0.3758563329D+00
 S   1 1.00       0.000000000000
      0.5769633942D+00  0.1000000000D+01
 S   1 1.00       0.000000000000
      0.2297283136D+00  0.1000000000D+01
 S   1 1.00       0.000000000000
      0.9516444003D-01  0.1000000000D+01
 P   4 1.00       0.000000000000
      0.3469723224D+02  0.1132722000D-01
      0.7958262283D+01  0.7616965920D-01
      0.2378082688D+01  0.3019225220D+00
      0.8143320818D+00  0.7278502735D+00
 P   1 1.00       0.000000000000
      0.2888754725D+00  0.1000000000D+01
 P   1 1.00       0.000000000000
      0.1005682367D+00  0.1000000000D+01
 D   1 1.00       0.000000000000
      0.1097000000D+01  0.1000000000D+01
 D   1 1.00       0.000000000000
      0.3180000000D+00  0.1000000000D+01
 F   1 1.00       0.000000000000
      0.7610000000D+00  0.1000000000D+01
 ****
      4 0
 S   6 1.00       0.000000000000
      0.1357534968D+05  0.6064550360D-03
      0.2035233368D+04  0.4697908888D-02
      0.4632256236D+03  0.2433247765D-01
      0.1312001960D+03  0.9739996831D-01
      0.4285301589D+02  0.3019558425D+00
      0.1558418577D+02  0.6623360914D+00
 S   2 1.00       0.000000000000
      0.6206713851D+01  0.6559530854D+00
      0.2576489653D+01  0.3758563329D+00
 S   1 1.00       0.000000000000
      0.5769633942D+00  0.1000000000D+01
 S   1 1.00       0.000000000000
      0.2297283136D+00  0.1000000000D+01
 S   1 1.00       0.000000000000
      0.9516444003D-01  0.1000000000D+01
 P   4 1.00       0.000000000000
      0.3469723224D+02  0.1132722000D-01
      0.7958262283D+01  0.7616965920D-01
      0.2378082688D+01  0.3019225220D+00
      0.8143320818D+00  0.7278502735D+00
 P   1 1.00       0.000000000000
      0.2888754725D+00  0.1000000000D+01
 P   1 1.00       0.000000000000
      0.1005682367D+00  0.1000000000D+01
 D   1 1.00       0.000000000000
      0.1097000000D+01  0.1000000000D+01
 D   1 1.00       0.000000000000
      0.3180000000D+00  0.1000000000D+01
 F   1 1.00       0.000000000000
      0.7610000000D+00  0.1000000000D+01
 ****
      5 0
 S   3 1.00       0.000000000000
      0.3406134100D+02  0.2543930721D-01
      0.5123574600D+01  0.1900859489D+00
      0.1164662600D+01  0.8524411301D+00
 S   1 1.00       0.000000000000
      0.3272304100D+00  0.1000000000D+01
 S   1 1.00       0.000000000000
      0.1030724100D+00  0.1000000000D+01
 P   1 1.00       0.000000000000
      0.8000000000D+00  0.1000000000D+01
 ****
      6 0
 S   3 1.00       0.000000000000
      0.3406134100D+02  0.2543930721D-01
      0.5123574600D+01  0.1900859489D+00
      0.1164662600D+01  0.8524411301D+00
 S   1 1.00       0.000000000000
      0.3272304100D+00  0.1000000000D+01
 S   1 1.00       0.000000000000
      0.1030724100D+00  0.1000000000D+01
 P   1 1.00       0.000000000000
      0.8000000000D+00  0.1000000000D+01
 ****
      7 0
 S   3 1.00       0.000000000000
      0.3406134100D+02  0.2543930721D-01
      0.5123574600D+01  0.1900859489D+00
      0.1164662600D+01  0.8524411301D+00
 S   1 1.00       0.000000000000
      0.3272304100D+00  0.1000000000D+01
 S   1 1.00       0.000000000000
      0.1030724100D+00  0.1000000000D+01
 P   1 1.00       0.000000000000
      0.8000000000D+00  0.1000000000D+01
 ****
      8 0
 S   3 1.00       0.000000000000
      0.3406134100D+02  0.2543930721D-01
      0.5123574600D+01  0.1900859489D+00
      0.1164662600D+01  0.8524411301D+00
 S   1 1.00       0.000000000000
      0.3272304100D+00  0.1000000000D+01
 S   1 1.00       0.000000000000
      0.1030724100D+00  0.1000000000D+01
 P   1 1.00       0.000000000000
      0.8000000000D+00  0.1000000000D+01
 ****
      9 0
 S   3 1.00       0.000000000000
      0.3406134100D+02  0.2543930721D-01
      0.5123574600D+01  0.1900859489D+00
      0.1164662600D+01  0.8524411301D+00
 S   1 1.00       0.000000000000
      0.3272304100D+00  0.1000000000D+01
 S   1 1.00       0.000000000000
      0.1030724100D+00  0.1000000000D+01
 P   1 1.00       0.000000000000
      0.8000000000D+00  0.1000000000D+01
 ****
     10 0
 S   3 1.00       0.000000000000
      0.3406134100D+02  0.2543930721D-01
      0.5123574600D+01  0.1900859489D+00
      0.1164662600D+01  0.8524411301D+00
 S   1 1.00       0.000000000000
      0.3272304100D+00  0.1000000000D+01
 S   1 1.00       0.000000000000
      0.1030724100D+00  0.1000000000D+01
 P   1 1.00       0.000000000000
      0.8000000000D+00  0.1000000000D+01
 ****

 ***********************************************************************************************************************************
 *             ATOMIC CENTER             *        ATOMIC ORBITAL       *                     GAUSSIAN FUNCTIONS                    *
 ***********************************************************************************************************************************
 *                                       * FUNCTION    SHELL    SCALE  *                                                           *
 *    ATOM   X-COORD  Y-COORD  Z-COORD   *  NUMBER     TYPE     FACTOR *  EXPONENT    S-COEF      P-COEF      D-COEF      F-COEF   *
 ***********************************************************************************************************************************
 *     O      0.00000 -0.00000  3.12057                                                                                            *
+                                                1   S           1.00                                                               
+                                                                      0.270324D+050.859858D+000.000000D+000.000000D+000.000000D+00 
 *                                                                     0.405239D+040.160553D+010.000000D+000.000000D+000.000000D+00*
 *                                                                     0.922327D+030.274588D+010.000000D+000.000000D+000.000000D+00*
 *                                                                     0.261241D+030.429877D+010.000000D+000.000000D+000.000000D+00*
 *                                                                     0.853546D+020.587977D+010.000000D+000.000000D+000.000000D+00*
 *                                                                     0.310350D+020.631640D+010.000000D+000.000000D+000.000000D+00*
 *                                               2   S           1.00                                                              *
+                                                                      0.122609D+020.298121D+010.000000D+000.000000D+000.000000D+00 
 *                                                                     0.499871D+010.941956D+000.000000D+000.000000D+000.000000D+00*
 *                                               3   S           1.00                                                              *
+                                                                      0.117031D+010.801929D+000.000000D+000.000000D+000.000000D+00 
 *                                               4   S           1.00                                                              *
+                                                                      0.464747D+000.401165D+000.000000D+000.000000D+000.000000D+00 
 *                                               5   S           1.00                                                              *
+                                                                      0.185045D+000.201080D+000.000000D+000.000000D+000.000000D+00 
 *                                           6-  8   P           1.00                                                              *
+                                                                      0.632750D+020.000000D+000.305720D+010.000000D+000.000000D+00 
 *                                                                     0.146270D+020.000000D+000.338448D+010.000000D+000.000000D+00*
 *                                                                     0.445012D+010.000000D+000.294743D+010.000000D+000.000000D+00*
 *                                                                     0.152758D+010.000000D+000.171183D+010.000000D+000.000000D+00*
 *                                           9- 11   P           1.00                                                              *
+                                                                      0.529351D+000.000000D+000.643606D+000.000000D+000.000000D+00 
 *                                          12- 14   P           1.00                                                              *
+                                                                      0.174784D+000.000000D+000.161090D+000.000000D+000.000000D+00 
 *                                          15- 19   D           1.00                                                              *
+                                                                      0.231400D+010.000000D+000.000000D+000.714571D+010.000000D+00 
 *                                          20- 24   D           1.00                                                              *
+                                                                      0.645000D+000.000000D+000.000000D+000.764080D+000.000000D+00 
 *                                          19- 31   F           1.00                                                              *
+                                                                      0.142800D+010.000000D+000.000000D+000.000000D+000.328165D+01 
 *---------------------------------------------------------------------------------------------------------------------------------*
 *     S     -0.00000 -0.00000  0.23120                                                                                            *
+                                               32   S           1.00                                                               
+                                                                      0.607009D+050.144369D+010.000000D+000.000000D+000.000000D+00 
 *                                                                     0.910261D+040.269034D+010.000000D+000.000000D+000.000000D+00*
 *                                                                     0.207142D+040.455761D+010.000000D+000.000000D+000.000000D+00*
 *                                                                     0.586025D+030.691812D+010.000000D+000.000000D+000.000000D+00*
 *                                                                     0.190554D+030.868102D+010.000000D+000.000000D+000.000000D+00*
 *                                                                     0.676304D+020.751758D+010.000000D+000.000000D+000.000000D+00*
 *                                                                     0.251273D+020.279090D+010.000000D+000.000000D+000.000000D+00*
 *                                              33   S           1.00                                                              *
+                                                                      0.112575D+030.247437D+010.000000D+000.000000D+000.000000D+00 
 *                                                                     0.347956D+020.443052D+010.000000D+000.000000D+000.000000D+00*
 *                                                                     0.651156D+01-.351072D+010.000000D+000.000000D+000.000000D+00*
 *                                              34   S           1.00                                                              *
+                                                                      0.323990D+010.116172D+010.000000D+000.000000D+000.000000D+00 
 *                                                                     0.154772D+010.343256D+000.000000D+000.000000D+000.000000D+00*
 *                                              35   S           1.00                                                              *
+                                                                      0.405410D+000.362102D+000.000000D+000.000000D+000.000000D+00 
 *                                              36   S           1.00                                                              *
+                                                                      0.145507D+000.167908D+000.000000D+000.000000D+000.000000D+00 
 *                                          37- 39   P           1.00                                                              *
+                                                                      0.564367D+030.000000D+000.136790D+020.000000D+000.000000D+00 
 *                                                                     0.133426D+030.000000D+000.178953D+020.000000D+000.000000D+00*
 *                                                                     0.424683D+020.000000D+000.195629D+020.000000D+000.000000D+00*
 *                                                                     0.156165D+020.000000D+000.160037D+020.000000D+000.000000D+00*
 *                                                                     0.610940D+010.000000D+000.838197D+010.000000D+000.000000D+00*
 *                                          40- 42   P           1.00                                                              *
+                                                                      0.244042D+010.000000D+000.434780D+010.000000D+000.000000D+00 
 *                                          43- 45   P           1.00                                                              *
+                                                                      0.838822D+000.000000D+000.114427D+010.000000D+000.000000D+00 
 *                                          46- 48   P           1.00                                                              *
+                                                                      0.312887D+000.000000D+000.333561D+000.000000D+000.000000D+00 
 *                                          49- 51   P           1.00                                                              *
+                                                                      0.107701D+000.000000D+000.879458D-010.000000D+000.000000D+00 
 *                                          52- 56   D           1.00                                                              *
+                                                                      0.375600D+010.000000D+000.000000D+000.304985D+010.000000D+00 
 *                                                                     0.812000D+000.000000D+000.000000D+000.104521D+010.000000D+00*
 *                                          57- 61   D           1.00                                                              *
+                                                                      0.273000D+000.000000D+000.000000D+000.169705D+000.000000D+00 
 *                                          56- 68   F           1.00                                                              *
+                                                                      0.557000D+000.000000D+000.000000D+000.000000D+000.394574D+00 
 *---------------------------------------------------------------------------------------------------------------------------------*
 *     C      0.00000  2.89632 -1.46863                                                                                            *
+                                               69   S           1.00                                                               
+                                                                      0.135753D+050.543591D+000.000000D+000.000000D+000.000000D+00 
 *                                                                     0.203523D+040.101455D+010.000000D+000.000000D+000.000000D+00*
 *                                                                     0.463226D+030.173157D+010.000000D+000.000000D+000.000000D+00*
 *                                                                     0.131200D+030.269104D+010.000000D+000.000000D+000.000000D+00*
 *                                                                     0.428530D+020.360445D+010.000000D+000.000000D+000.000000D+00*
 *                                                                     0.155842D+020.370256D+010.000000D+000.000000D+000.000000D+00*
 *                                              70   S           1.00                                                              *
+                                                                      0.620671D+010.183835D+010.000000D+000.000000D+000.000000D+00 
 *                                                                     0.257649D+010.544758D+000.000000D+000.000000D+000.000000D+00*
 *                                              71   S           1.00                                                              *
+                                                                      0.576963D+000.471815D+000.000000D+000.000000D+000.000000D+00 
 *                                              72   S           1.00                                                              *
+                                                                      0.229728D+000.236494D+000.000000D+000.000000D+000.000000D+00 
 *                                              73   S           1.00                                                              *
+                                                                      0.951644D-010.122114D+000.000000D+000.000000D+000.000000D+00 
 *                                          74- 76   P           1.00                                                              *
+                                                                      0.346972D+020.000000D+000.135967D+010.000000D+000.000000D+00 
 *                                                                     0.795826D+010.000000D+000.145126D+010.000000D+000.000000D+00*
 *                                                                     0.237808D+010.000000D+000.127092D+010.000000D+000.000000D+00*
 *                                                                     0.814332D+000.000000D+000.802572D+000.000000D+000.000000D+00*
 *                                          77- 79   P           1.00                                                              *
+                                                                      0.288875D+000.000000D+000.301876D+000.000000D+000.000000D+00 
 *                                          80- 82   P           1.00                                                              *
+                                                                      0.100568D+000.000000D+000.807265D-010.000000D+000.000000D+00 
 *                                          83- 87   D           1.00                                                              *
+                                                                      0.109700D+010.000000D+000.000000D+000.193540D+010.000000D+00 
 *                                          88- 92   D           1.00                                                              *
+                                                                      0.318000D+000.000000D+000.000000D+000.221644D+000.000000D+00 
 *                                          87- 99   F           1.00                                                              *
+                                                                      0.761000D+000.000000D+000.000000D+000.000000D+000.796288D+00 
 *---------------------------------------------------------------------------------------------------------------------------------*
 *     C     -0.00000 -2.89632 -1.46863                                                                                            *
+                                              100   S           1.00                                                               
+                                                                      0.135753D+050.543591D+000.000000D+000.000000D+000.000000D+00 
 *                                                                     0.203523D+040.101455D+010.000000D+000.000000D+000.000000D+00*
 *                                                                     0.463226D+030.173157D+010.000000D+000.000000D+000.000000D+00*
 *                                                                     0.131200D+030.269104D+010.000000D+000.000000D+000.000000D+00*
 *                                                                     0.428530D+020.360445D+010.000000D+000.000000D+000.000000D+00*
 *                                                                     0.155842D+020.370256D+010.000000D+000.000000D+000.000000D+00*
 *                                             101   S           1.00                                                              *
+                                                                      0.620671D+010.183835D+010.000000D+000.000000D+000.000000D+00 
 *                                                                     0.257649D+010.544758D+000.000000D+000.000000D+000.000000D+00*
 *                                             102   S           1.00                                                              *
+                                                                      0.576963D+000.471815D+000.000000D+000.000000D+000.000000D+00 
 *                                             103   S           1.00                                                              *
+                                                                      0.229728D+000.236494D+000.000000D+000.000000D+000.000000D+00 
 *                                             104   S           1.00                                                              *
+                                                                      0.951644D-010.122114D+000.000000D+000.000000D+000.000000D+00 
 *                                         105-107   P           1.00                                                              *
+                                                                      0.346972D+020.000000D+000.135967D+010.000000D+000.000000D+00 
 *                                                                     0.795826D+010.000000D+000.145126D+010.000000D+000.000000D+00*
 *                                                                     0.237808D+010.000000D+000.127092D+010.000000D+000.000000D+00*
 *                                                                     0.814332D+000.000000D+000.802572D+000.000000D+000.000000D+00*
 *                                         108-110   P           1.00                                                              *
+                                                                      0.288875D+000.000000D+000.301876D+000.000000D+000.000000D+00 
 *                                         111-113   P           1.00                                                              *
+                                                                      0.100568D+000.000000D+000.807265D-010.000000D+000.000000D+00 
 *                                         114-118   D           1.00                                                              *
+                                                                      0.109700D+010.000000D+000.000000D+000.193540D+010.000000D+00 
 *                                         119-123   D           1.00                                                              *
+                                                                      0.318000D+000.000000D+000.000000D+000.221644D+000.000000D+00 
 *                                         118-130   F           1.00                                                              *
+                                                                      0.761000D+000.000000D+000.000000D+000.000000D+000.796288D+00 
 *---------------------------------------------------------------------------------------------------------------------------------*
 *     H      0.00000  2.35185 -3.45694                                                                                            *
+                                              131   S           1.00                                                               
+                                                                      0.340613D+020.255630D+000.000000D+000.000000D+000.000000D+00 
 *                                                                     0.512357D+010.461360D+000.000000D+000.000000D+000.000000D+00*
 *                                                                     0.116466D+010.681121D+000.000000D+000.000000D+000.000000D+00*
 *                                             132   S           1.00                                                              *
+                                                                      0.327230D+000.308355D+000.000000D+000.000000D+000.000000D+00 
 *                                             133   S           1.00                                                              *
+                                                                      0.103072D+000.129648D+000.000000D+000.000000D+000.000000D+00 
 *                                         134-136   P           1.00                                                              *
+                                                                      0.800000D+000.000000D+000.107846D+010.000000D+000.000000D+00 
 *---------------------------------------------------------------------------------------------------------------------------------*
 *     H     -1.69993  3.97449 -1.03159                                                                                            *
+                                              137   S           1.00                                                               
+                                                                      0.340613D+020.255630D+000.000000D+000.000000D+000.000000D+00 
 *                                                                     0.512357D+010.461360D+000.000000D+000.000000D+000.000000D+00*
 *                                                                     0.116466D+010.681121D+000.000000D+000.000000D+000.000000D+00*
 *                                             138   S           1.00                                                              *
+                                                                      0.327230D+000.308355D+000.000000D+000.000000D+000.000000D+00 
 *                                             139   S           1.00                                                              *
+                                                                      0.103072D+000.129648D+000.000000D+000.000000D+000.000000D+00 
 *                                         140-142   P           1.00                                                              *
+                                                                      0.800000D+000.000000D+000.107846D+010.000000D+000.000000D+00 
 *---------------------------------------------------------------------------------------------------------------------------------*
 *     H      1.69993  3.97449 -1.03159                                                                                            *
+                                              143   S           1.00                                                               
+                                                                      0.340613D+020.255630D+000.000000D+000.000000D+000.000000D+00 
 *                                                                     0.512357D+010.461360D+000.000000D+000.000000D+000.000000D+00*
 *                                                                     0.116466D+010.681121D+000.000000D+000.000000D+000.000000D+00*
 *                                             144   S           1.00                                                              *
+                                                                      0.327230D+000.308355D+000.000000D+000.000000D+000.000000D+00 
 *                                             145   S           1.00                                                              *
+                                                                      0.103072D+000.129648D+000.000000D+000.000000D+000.000000D+00 
 *                                         146-148   P           1.00                                                              *
+                                                                      0.800000D+000.000000D+000.107846D+010.000000D+000.000000D+00 
 *---------------------------------------------------------------------------------------------------------------------------------*
 *     H     -0.00000 -2.35185 -3.45694                                                                                            *
+                                              149   S           1.00                                                               
+                                                                      0.340613D+020.255630D+000.000000D+000.000000D+000.000000D+00 
 *                                                                     0.512357D+010.461360D+000.000000D+000.000000D+000.000000D+00*
 *                                                                     0.116466D+010.681121D+000.000000D+000.000000D+000.000000D+00*
 *                                             150   S           1.00                                                              *
+                                                                      0.327230D+000.308355D+000.000000D+000.000000D+000.000000D+00 
 *                                             151   S           1.00                                                              *
+                                                                      0.103072D+000.129648D+000.000000D+000.000000D+000.000000D+00 
 *                                         152-154   P           1.00                                                              *
+                                                                      0.800000D+000.000000D+000.107846D+010.000000D+000.000000D+00 
 *---------------------------------------------------------------------------------------------------------------------------------*
 *     H      1.69993 -3.97449 -1.03159                                                                                            *
+                                              155   S           1.00                                                               
+                                                                      0.340613D+020.255630D+000.000000D+000.000000D+000.000000D+00 
 *                                                                     0.512357D+010.461360D+000.000000D+000.000000D+000.000000D+00*
 *                                                                     0.116466D+010.681121D+000.000000D+000.000000D+000.000000D+00*
 *                                             156   S           1.00                                                              *
+                                                                      0.327230D+000.308355D+000.000000D+000.000000D+000.000000D+00 
 *                                             157   S           1.00                                                              *
+                                                                      0.103072D+000.129648D+000.000000D+000.000000D+000.000000D+00 
 *                                         158-160   P           1.00                                                              *
+                                                                      0.800000D+000.000000D+000.107846D+010.000000D+000.000000D+00 
 *---------------------------------------------------------------------------------------------------------------------------------*
 *     H     -1.69993 -3.97449 -1.03159                                                                                            *
+                                              161   S           1.00                                                               
+                                                                      0.340613D+020.255630D+000.000000D+000.000000D+000.000000D+00 
 *                                                                     0.512357D+010.461360D+000.000000D+000.000000D+000.000000D+00*
 *                                                                     0.116466D+010.681121D+000.000000D+000.000000D+000.000000D+00*
 *                                             162   S           1.00                                                              *
+                                                                      0.327230D+000.308355D+000.000000D+000.000000D+000.000000D+00 
 *                                             163   S           1.00                                                              *
+                                                                      0.103072D+000.129648D+000.000000D+000.000000D+000.000000D+00 
 *                                         164-166   P           1.00                                                              *
+                                                                      0.800000D+000.000000D+000.107846D+010.000000D+000.000000D+00 
 ***********************************************************************************************************************************
 There are    72 symmetry adapted cartesian basis functions of A1  symmetry.
 There are    24 symmetry adapted cartesian basis functions of A2  symmetry.
 There are    36 symmetry adapted cartesian basis functions of B1  symmetry.
 There are    54 symmetry adapted cartesian basis functions of B2  symmetry.
 There are    62 symmetry adapted basis functions of A1  symmetry.
 There are    23 symmetry adapted basis functions of A2  symmetry.
 There are    33 symmetry adapted basis functions of B1  symmetry.
 There are    48 symmetry adapted basis functions of B2  symmetry.
   166 basis functions,   270 primitive gaussians,   186 cartesian basis functions
    21 alpha electrons       21 beta electrons
       nuclear repulsion energy       180.5688855790 Hartrees.
 IExCor= 1009 DFT=T Ex+Corr=PBE1PBE ExCW=0 ScaHFX=  0.250000
 ScaDFX=  0.750000  0.750000  1.000000  1.000000 ScalE2=  1.000000  1.000000
 IRadAn=      5 IRanWt=     -1 IRanGd=            0 ICorTp=0 IEmpDi=141
 NAtoms=   10 NActive=   10 NUniq=    5 SFac= 4.00D+00 NAtFMM=   60 NAOKFM=F Big=F
 Integral buffers will be    131072 words long.
 Raffenetti 2 integral format.
 Two-electron integral symmetry is turned on.
 R6Disp:  Grimme-D3(BJ) Dispersion energy=       -0.0059473363 Hartrees.
 Nuclear repulsion after empirical dispersion term =      180.5629382427 Hartrees.
 Using the following non-standard input for PCM:
 Radii=Klamt
 --- end of non-standard input.
 ------------------------------------------------------------------------------
 Polarizable Continuum Model (PCM)
 =================================
 Model                : C-PCM.
 Atomic radii         : Klamt.
 Polarization charges : Total charges.
 Charge compensation  : None.
 Solution method      : On-the-fly selection.
 Cavity type          : Scaled VdW (van der Waals Surface) (Alpha=1.100).
 Cavity algorithm     : GePol (No added spheres)
                        Default sphere list used, NSphG=   10.
                        Lebedev-Laikov grids with approx.  5.0 points / Ang**2.
                        Smoothing algorithm: York/Karplus (Gamma=1.0000).
                        Polarization charges: spherical gaussians, with
                                              point-specific exponents (IZeta= 3).
                        Self-potential: point-specific (ISelfS= 7).
                        Self-field    : sphere-specific E.n sum rule (ISelfD= 2).
 1st derivatives      : Analytical E(r).r(x)/FMM algorithm (CHGder, D1EAlg=3).
                        Cavity 1st derivative terms included.
 Solvent              : Water, Eps=  78.355300 Eps(inf)=   1.777849
 ------------------------------------------------------------------------------
 Spheres list:
 ISph  on   Nord     Re0    Alpha      Xe            Ye            Ze
    1   O      1    1.7200  1.000      0.000000     -0.000000      1.651335
    2   S      2    2.1600  1.000     -0.000000     -0.000000      0.122346
    3   C      3    2.0000  1.000      0.000000      1.532668     -0.777164
    4   C      4    2.0000  1.000     -0.000000     -1.532668     -0.777164
    5   H      5    1.3000  1.000      0.000000      1.244545     -1.829335
    6   H      6    1.3000  1.000     -0.899567      2.103211     -0.545892
    7   H      7    1.3000  1.000      0.899567      2.103211     -0.545892
    8   H      8    1.3000  1.000     -0.000000     -1.244545     -1.829335
    9   H      9    1.3000  1.000      0.899567     -2.103211     -0.545892
   10   H     10    1.3000  1.000     -0.899567     -2.103211     -0.545892
 ------------------------------------------------------------------------------
 GePol: Number of generator spheres                  =      10
 GePol: Total number of spheres                      =      10
 GePol: Number of exposed spheres                    =      10 (100.00%)
 GePol: Number of points                             =     834
 GePol: Average weight of points                     =       0.14
 GePol: Minimum weight of points                     =   0.66D-05
 GePol: Maximum weight of points                     =    0.21253
 GePol: Number of points with low weight             =      39
 GePol: Fraction of low-weight points (<1% of avg)   =       4.68%
 GePol: Cavity surface area                          =    114.746 Ang**2
 GePol: Cavity volume                                =     94.182 Ang**3
 Leave Link  301 at Tue Oct 28 16:27:42 2025, MaxMem=  1048576000 cpu:               0.3 elap:               0.2
 (Enter /home/pcmt/gaussian/g16.C.01/g16/l302.exe)
 NPDir=0 NMtPBC=     1 NCelOv=     1 NCel=       1 NClECP=     1 NCelD=      1
         NCelK=      1 NCelE2=     1 NClLst=     1 CellRange=     0.0.
 One-electron integrals computed using PRISM.
 One-electron integral symmetry used in STVInt
 NBasis=   166 RedAO= T EigKep=  8.65D-04  NBF=    62    23    33    48
 NBsUse=   166 1.00D-06 EigRej= -1.00D+00 NBFU=    62    23    33    48
 Precomputing XC quadrature grid using
 IXCGrd= 4 IRadAn=           5 IRanWt=          -1 IRanGd=           0 AccXCQ= 0.00D+00.
 Generated NRdTot=       0 NPtTot=           0 NUsed=           0 NTot=          32
 NSgBfM=   185   185   185   185   185 MxSgAt=    10 MxSgA2=    10.
 Leave Link  302 at Tue Oct 28 16:27:42 2025, MaxMem=  1048576000 cpu:               0.8 elap:               0.3
 (Enter /home/pcmt/gaussian/g16.C.01/g16/l303.exe)
 DipDrv:  MaxL=1.
 Leave Link  303 at Tue Oct 28 16:27:42 2025, MaxMem=  1048576000 cpu:               0.2 elap:               0.1
 (Enter /home/pcmt/gaussian/g16.C.01/g16/l401.exe)
 Initial guess from the checkpoint file:  "DMSO.pbe0-d3bj-cosmo.optg-freq.chk"
 B after Tr=    -0.000000   -0.000000    0.000000
         Rot=    1.000000   -0.000000    0.000000    0.000000 Ang=   0.00 deg.
 Guess basis will be translated and rotated to current coordinates.
 JPrj=2 DoOrth=T DoCkMO=T.
 Initial guess orbital symmetries:
       Occupied  (A1) (A1) (B2) (A1) (A1) (A1) (B2) (B1) (A1) (A1)
                 (B2) (A1) (A1) (B1) (B2) (A2) (B2) (A1) (B1) (B2)
                 (B1)
       Virtual   (A1) (A1) (A1) (B2) (A1) (B1) (B2) (A2) (A1) (B2)
                 (B1) (B2) (A1) (B2) (A2) (A1) (B1) (A2) (A1) (B2)
                 (B1) (A1) (B2) (A1) (B2) (A2) (B1) (A1) (A1) (B1)
                 (B2) (B2) (A1) (B2) (B1) (A1) (B2) (A2) (A1) (A1)
                 (A2) (B2) (B1) (A1) (B2) (A1) (A2) (B1) (A1) (A1)
                 (A1) (B2) (B2) (A2) (B1) (A2) (B2) (B1) (B1) (A1)
                 (B2) (B1) (A2) (A1) (B2) (A2) (B1) (A1) (B2) (A1)
                 (A1) (B2) (A1) (A1) (A2) (B2) (B2) (B1) (B2) (A1)
                 (B1) (A1) (A2) (B2) (B1) (A1) (A2) (B1) (B2) (A1)
                 (A2) (A1) (B2) (B1) (B2) (B1) (A1) (A1) (A1) (B2)
                 (B1) (B2) (A2) (A1) (B2) (A1) (B1) (A2) (B1) (A2)
                 (A1) (B2) (A2) (A1) (B2) (B1) (B2) (A1) (B2) (A1)
                 (B1) (A2) (A1) (B2) (A1) (B2) (B1) (B2) (A2) (A1)
                 (B1) (A1) (B2) (A2) (A1) (B1) (B2) (A1) (B1) (A1)
                 (B2) (A1) (B2) (A1) (A1)
 The electronic state of the initial guess is 1-A1.
 Leave Link  401 at Tue Oct 28 16:27:42 2025, MaxMem=  1048576000 cpu:               0.6 elap:               0.2
 (Enter /home/pcmt/gaussian/g16.C.01/g16/l502.exe)
 Keep R1 ints in memory in symmetry-blocked form, NReq=120442943.
 FoFCou: FMM=F IPFlag=           0 FMFlag=           0 FMFlg1=           0
         NFxFlg=           0 DoJE=F BraDBF=F KetDBF=F FulRan=T
         wScrn=  0.000000 ICntrl=       600 IOpCl=  0 I1Cent=           0 NGrid=           0
         NMat0=    1 NMatS0=  13861 NMatT0=    0 NMatD0=    1 NMtDS0=    0 NMtDT0=    0
 Petite list used in FoFCou.
 Closed shell SCF:
 Using DIIS extrapolation, IDIIS=  1040.
 NGot=  1048576000 LenX=  1024132663 LenY=  1024097626
 Requested convergence on RMS density matrix=1.00D-08 within 200 cycles.
 Requested convergence on MAX density matrix=1.00D-06.
 Requested convergence on             energy=1.00D-06.
 No special actions if energy rises.

 Cycle   1  Pass 1  IDiag  1:
 Inv3:  Mode=1 IEnd=     2086668.
 Iteration    1 A*A^-1 deviation from unit magnitude is 4.44D-15 for    825.
 Iteration    1 A*A^-1 deviation from orthogonality  is 1.22D-15 for    561     66.
 Iteration    1 A^-1*A deviation from unit magnitude is 4.44D-15 for    825.
 Iteration    1 A^-1*A deviation from orthogonality  is 1.02D-15 for    587    123.
 E= -552.919708035562    
 DIIS: error= 6.42D-09 at cycle   1 NSaved=   1.
 NSaved= 1 IEnMin= 1 EnMin= -552.919708035562     IErMin= 1 ErrMin= 6.42D-09
 ErrMax= 6.42D-09  0.00D+00 EMaxC= 1.00D-01 BMatC= 5.76D-15 BMatP= 5.76D-15
 IDIUse=1 WtCom= 1.00D+00 WtEn= 0.00D+00
 Coeff-Com:  0.100D+01
 Coeff:      0.100D+01
 Gap=     0.179 Goal=   None    Shift=    0.000
 RMSDP=8.60D-10 MaxDP=4.87D-08              OVMax= 3.43D-08

 Error on total polarization charges =  0.02221
 SCF Done:  E(RPBE1PBE) =  -552.919708036     A.U. after    1 cycles
            NFock=  1  Conv=0.86D-09     -V/T= 2.0024
 KE= 5.515825777081D+02 PE=-1.670260649678D+03 EE= 3.851954256914D+02
 Leave Link  502 at Tue Oct 28 16:27:47 2025, MaxMem=  1048576000 cpu:              16.6 elap:               4.3
 (Enter /home/pcmt/gaussian/g16.C.01/g16/l601.exe)
 Copying SCF densities to generalized density rwf, IOpCl= 0 IROHF=0.

 **********************************************************************

            Population analysis using the SCF Density.

 **********************************************************************

 Orbital symmetries:
       Occupied  (A1) (A1) (B2) (A1) (A1) (A1) (B2) (B1) (A1) (A1)
                 (B2) (A1) (A1) (B1) (B2) (A2) (B2) (A1) (B1) (B2)
                 (B1)
       Virtual   (A1) (A1) (A1) (B2) (A1) (B1) (B2) (A2) (A1) (B2)
                 (B1) (B2) (A1) (B2) (A2) (A1) (B1) (A2) (A1) (B2)
                 (B1) (A1) (B2) (A1) (B2) (A2) (B1) (A1) (A1) (B1)
                 (B2) (B2) (A1) (B2) (B1) (A1) (B2) (A2) (A1) (A1)
                 (A2) (B2) (B1) (A1) (B2) (A1) (A2) (B1) (A1) (A1)
                 (A1) (B2) (B2) (A2) (B1) (A2) (B2) (B1) (B1) (A1)
                 (B2) (B1) (A2) (A1) (B2) (A2) (B1) (A1) (B2) (A1)
                 (A1) (B2) (A1) (A1) (A2) (B2) (B2) (B1) (B2) (A1)
                 (B1) (A1) (A2) (B2) (B1) (A1) (A2) (B1) (B2) (A1)
                 (A2) (A1) (B2) (B1) (B2) (B1) (A1) (A1) (A1) (B2)
                 (B1) (B2) (A2) (A1) (B2) (A1) (B1) (A2) (B1) (A2)
                 (A1) (B2) (A2) (A1) (B2) (B1) (B2) (A1) (B2) (A1)
                 (B1) (A2) (A1) (B2) (A1) (B2) (B1) (B2) (A2) (A1)
                 (B1) (A1) (B2) (A2) (A1) (B1) (B2) (A1) (B1) (A1)
                 (B2) (A1) (B2) (A1) (A1)
 The electronic state is 1-A1.
 Alpha  occ. eigenvalues --  -89.08641 -19.17064 -10.26351 -10.26351  -8.05834
 Alpha  occ. eigenvalues --   -5.99545  -5.99488  -5.98669  -1.02130  -0.81977
 Alpha  occ. eigenvalues --   -0.75366  -0.60916  -0.47596  -0.47106  -0.46776
 Alpha  occ. eigenvalues --   -0.44128  -0.42319  -0.41198  -0.36144  -0.30525
 Alpha  occ. eigenvalues --   -0.19028
 Alpha virt. eigenvalues --   -0.01098   0.04952   0.06627   0.08677   0.11653
 Alpha virt. eigenvalues --    0.12019   0.12584   0.13227   0.18481   0.18928
 Alpha virt. eigenvalues --    0.19155   0.22797   0.23735   0.24631   0.26463
 Alpha virt. eigenvalues --    0.31701   0.34174   0.35540   0.36326   0.42499
 Alpha virt. eigenvalues --    0.42544   0.43013   0.44693   0.46434   0.48770
 Alpha virt. eigenvalues --    0.48792   0.49984   0.51531   0.52522   0.54377
 Alpha virt. eigenvalues --    0.57221   0.60975   0.66439   0.72799   0.75328
 Alpha virt. eigenvalues --    0.81625   0.81911   0.84708   0.88124   0.91711
 Alpha virt. eigenvalues --    0.92162   0.93934   0.98933   1.00438   1.06764
 Alpha virt. eigenvalues --    1.12567   1.38370   1.38976   1.40912   1.43980
 Alpha virt. eigenvalues --    1.45957   1.46817   1.49874   1.50915   1.51225
 Alpha virt. eigenvalues --    1.57059   1.57218   1.57475   1.60941   1.61847
 Alpha virt. eigenvalues --    1.64583   1.68843   1.70653   1.71811   1.73343
 Alpha virt. eigenvalues --    1.76363   1.80488   1.80680   1.82456   1.87953
 Alpha virt. eigenvalues --    1.96925   2.03567   2.06331   2.11277   2.11842
 Alpha virt. eigenvalues --    2.11854   2.14961   2.17099   2.24219   2.25104
 Alpha virt. eigenvalues --    2.29541   2.29898   2.30208   2.31043   2.31478
 Alpha virt. eigenvalues --    2.39553   2.51909   2.54348   2.54937   2.56370
 Alpha virt. eigenvalues --    2.60547   2.66441   2.69489   2.71629   2.77693
 Alpha virt. eigenvalues --    2.83762   2.84883   2.88226   2.95081   3.00982
 Alpha virt. eigenvalues --    3.03717   3.03922   3.06178   3.11200   3.19863
 Alpha virt. eigenvalues --    3.27571   3.31015   3.34698   3.39670   3.43570
 Alpha virt. eigenvalues --    3.43807   3.46269   3.48744   3.55154   3.57486
 Alpha virt. eigenvalues --    3.61401   3.62010   3.65072   3.82063   3.98667
 Alpha virt. eigenvalues --    4.16295   4.22973   4.24558   4.26773   4.45243
 Alpha virt. eigenvalues --    4.46132   5.19395   5.19474   5.25871   5.27652
 Alpha virt. eigenvalues --    5.39853   5.49205   5.55589   6.33405   6.37767
 Alpha virt. eigenvalues --    6.65695   6.70514   6.88039   8.91100   9.48235
 Alpha virt. eigenvalues --    9.53719  20.27300  22.18424  22.20306  43.64534
     Molecular Orbital Coefficients:
                           1         2         3         4         5
                        (A1)--O   (A1)--O   (B2)--O   (A1)--O   (A1)--O
     Eigenvalues --   -89.08641 -19.17064 -10.26351 -10.26351  -8.05834
   1 1   O  1S          0.00002   0.43539   0.00000  -0.00000  -0.00004
   2        2S         -0.00007   0.63979   0.00000   0.00002  -0.00019
   3        3S          0.00057   0.03342   0.00000  -0.00029   0.00139
   4        4S         -0.00107  -0.02289   0.00000   0.00114  -0.00261
   5        5S         -0.00141   0.01078   0.00000  -0.00178  -0.00311
   6        6PX         0.00000   0.00000   0.00000   0.00000   0.00000
   7        6PY         0.00000   0.00000  -0.00000   0.00000   0.00000
   8        6PZ        -0.00024  -0.00198   0.00000  -0.00000  -0.00061
   9        7PX         0.00000   0.00000   0.00000   0.00000   0.00000
  10        7PY         0.00000   0.00000   0.00006   0.00000   0.00000
  11        7PZ         0.00124   0.00435   0.00000  -0.00026   0.00308
  12        8PX         0.00000   0.00000   0.00000   0.00000   0.00000
  13        8PY         0.00000   0.00000  -0.00042   0.00000   0.00000
  14        8PZ         0.00050  -0.00221   0.00000   0.00099   0.00098
  15        9D 0        0.00011   0.00026   0.00000   0.00002   0.00022
  16        9D+1        0.00000   0.00000   0.00000   0.00000   0.00000
  17        9D-1        0.00000   0.00000  -0.00006   0.00000   0.00000
  18        9D+2       -0.00000   0.00002   0.00000  -0.00007  -0.00001
  19        9D-2        0.00000   0.00000   0.00000   0.00000   0.00000
  20       10D 0       -0.00072  -0.00124   0.00000   0.00008  -0.00169
  21       10D+1        0.00000   0.00000   0.00000   0.00000   0.00000
  22       10D-1        0.00000   0.00000   0.00022   0.00000   0.00000
  23       10D+2        0.00001  -0.00011   0.00000   0.00024   0.00002
  24       10D-2        0.00000   0.00000   0.00000   0.00000   0.00000
  25       11F 0        0.00019   0.00021   0.00000  -0.00006   0.00027
  26       11F+1        0.00000   0.00000   0.00000   0.00000   0.00000
  27       11F-1        0.00000   0.00000  -0.00004   0.00000   0.00000
  28       11F+2        0.00001   0.00002   0.00000  -0.00006   0.00003
  29       11F-2        0.00000   0.00000   0.00000   0.00000   0.00000
  30       11F+3        0.00000   0.00000   0.00000   0.00000   0.00000
  31       11F-3        0.00000   0.00000  -0.00000   0.00000   0.00000
  32 2   S  1S          0.99920   0.00009   0.00000   0.00003  -0.28778
  33        2S         -0.03150  -0.00021   0.00000  -0.00008  -0.24047
  34        3S         -0.01092  -0.00062   0.00000  -0.00030   0.80651
  35        4S          0.00404   0.00046   0.00000  -0.00030   0.03005
  36        5S          0.00090  -0.00063   0.00000   0.00798  -0.00384
  37        6PX         0.00000   0.00000   0.00000   0.00000   0.00000
  38        6PY         0.00000   0.00000  -0.00003   0.00000   0.00000
  39        6PZ         0.00004  -0.00001   0.00000   0.00002   0.00133
  40        7PX         0.00000   0.00000   0.00000   0.00000   0.00000
  41        7PY         0.00000   0.00000   0.00007   0.00000   0.00000
  42        7PZ        -0.00010   0.00000   0.00000  -0.00004   0.00064
  43        8PX         0.00000   0.00000   0.00000   0.00000   0.00000
  44        8PY         0.00000   0.00000  -0.00037   0.00000   0.00000
  45        8PZ         0.00007  -0.00089   0.00000   0.00027   0.00056
  46        9PX         0.00000   0.00000   0.00000   0.00000   0.00000
  47        9PY         0.00000   0.00000   0.00378   0.00000   0.00000
  48        9PZ         0.00032   0.00499   0.00000  -0.00236  -0.00029
  49       10PX         0.00000   0.00000   0.00000   0.00000   0.00000
  50       10PY         0.00000   0.00000  -0.00198   0.00000   0.00000
  51       10PZ         0.00063  -0.00499   0.00000  -0.00168   0.00245
  52       11D 0        0.00020   0.00055   0.00000  -0.00021   0.00101
  53       11D+1        0.00000   0.00000   0.00000   0.00000   0.00000
  54       11D-1        0.00000   0.00000  -0.00025   0.00000   0.00000
  55       11D+2       -0.00016  -0.00012   0.00000  -0.00003  -0.00118
  56       11D-2        0.00000   0.00000   0.00000   0.00000   0.00000
  57       12D 0        0.00078   0.00317   0.00000   0.00019   0.00155
  58       12D+1        0.00000   0.00000   0.00000   0.00000   0.00000
  59       12D-1        0.00000   0.00000  -0.00108   0.00000   0.00000
  60       12D+2       -0.00061   0.00140   0.00000  -0.00196  -0.00177
  61       12D-2        0.00000   0.00000   0.00000   0.00000   0.00000
  62       13F 0        0.00063   0.00091   0.00000  -0.00032   0.00199
  63       13F+1        0.00000   0.00000   0.00000   0.00000   0.00000
  64       13F-1        0.00000   0.00000   0.00000   0.00000   0.00000
  65       13F+2        0.00031  -0.00027   0.00000  -0.00013   0.00117
  66       13F-2        0.00000   0.00000   0.00000   0.00000   0.00000
  67       13F+3        0.00000   0.00000   0.00000   0.00000   0.00000
  68       13F-3        0.00000   0.00000   0.00010   0.00000   0.00000
  69 3   C  1S          0.00001  -0.00000   0.33031   0.33031  -0.00002
  70        2S         -0.00004   0.00002   0.43053   0.43053  -0.00012
  71        3S          0.00060  -0.00058   0.02471   0.02457   0.00202
  72        4S         -0.00155   0.00226  -0.01528  -0.01389  -0.00554
  73        5S          0.00124  -0.00391   0.01905   0.00843   0.00634
  74        6PX         0.00000   0.00000   0.00000   0.00000   0.00000
  75        6PY        -0.00018   0.00000  -0.00065  -0.00082  -0.00054
  76        6PZ         0.00009  -0.00018   0.00036   0.00040   0.00029
  77        7PX         0.00000   0.00000   0.00000   0.00000   0.00000
  78        7PY         0.00102  -0.00039   0.00304   0.00383   0.00325
  79        7PZ        -0.00039   0.00166  -0.00203  -0.00211  -0.00145
  80        8PX         0.00000   0.00000   0.00000   0.00000   0.00000
  81        8PY        -0.00010   0.00095  -0.00070   0.00173  -0.00087
  82        8PZ        -0.00015   0.00056  -0.00016   0.00005  -0.00041
  83        9D 0        0.00000  -0.00005  -0.00000  -0.00002   0.00002
  84        9D+1        0.00000   0.00000   0.00000   0.00000   0.00000
  85        9D-1       -0.00002   0.00007   0.00015   0.00014  -0.00001
  86        9D+2       -0.00001  -0.00010   0.00015   0.00001   0.00002
  87        9D-2        0.00000   0.00000   0.00000   0.00000   0.00000
  88       10D 0       -0.00000  -0.00003   0.00025   0.00012   0.00004
  89       10D+1        0.00000   0.00000   0.00000   0.00000   0.00000
  90       10D-1        0.00051  -0.00098   0.00159   0.00145   0.00173
  91       10D+2        0.00053   0.00027   0.00101   0.00169   0.00158
  92       10D-2        0.00000   0.00000   0.00000   0.00000   0.00000
  93       11F 0        0.00014  -0.00002  -0.00051  -0.00061   0.00040
  94       11F+1        0.00000   0.00000   0.00000   0.00000   0.00000
  95       11F-1        0.00003  -0.00004  -0.00043  -0.00047   0.00010
  96       11F+2        0.00025  -0.00008   0.00041   0.00032   0.00069
  97       11F-2        0.00000   0.00000   0.00000   0.00000   0.00000
  98       11F+3        0.00000   0.00000   0.00000   0.00000   0.00000
  99       11F-3       -0.00013   0.00010   0.00056   0.00054  -0.00038
 100 4   C  1S          0.00001  -0.00000  -0.33031   0.33031  -0.00002
 101        2S         -0.00004   0.00002  -0.43053   0.43053  -0.00012
 102        3S          0.00060  -0.00058  -0.02471   0.02457   0.00202
 103        4S         -0.00155   0.00226   0.01528  -0.01389  -0.00554
 104        5S          0.00124  -0.00391  -0.01905   0.00843   0.00634
 105        6PX         0.00000   0.00000   0.00000   0.00000   0.00000
 106        6PY         0.00018  -0.00000  -0.00065   0.00082   0.00054
 107        6PZ         0.00009  -0.00018  -0.00036   0.00040   0.00029
 108        7PX         0.00000   0.00000   0.00000   0.00000   0.00000
 109        7PY        -0.00102   0.00039   0.00304  -0.00383  -0.00325
 110        7PZ        -0.00039   0.00166   0.00203  -0.00211  -0.00145
 111        8PX         0.00000   0.00000   0.00000   0.00000   0.00000
 112        8PY         0.00010  -0.00095  -0.00070  -0.00173   0.00087
 113        8PZ        -0.00015   0.00056   0.00016   0.00005  -0.00041
 114        9D 0        0.00000  -0.00005   0.00000  -0.00002   0.00002
 115        9D+1        0.00000   0.00000   0.00000   0.00000   0.00000
 116        9D-1        0.00002  -0.00007   0.00015  -0.00014   0.00001
 117        9D+2       -0.00001  -0.00010  -0.00015   0.00001   0.00002
 118        9D-2        0.00000   0.00000   0.00000   0.00000   0.00000
 119       10D 0       -0.00000  -0.00003  -0.00025   0.00012   0.00004
 120       10D+1        0.00000   0.00000   0.00000   0.00000   0.00000
 121       10D-1       -0.00051   0.00098   0.00159  -0.00145  -0.00173
 122       10D+2        0.00053   0.00027  -0.00101   0.00169   0.00158
 123       10D-2        0.00000   0.00000   0.00000   0.00000   0.00000
 124       11F 0        0.00014  -0.00002   0.00051  -0.00061   0.00040
 125       11F+1        0.00000   0.00000   0.00000   0.00000   0.00000
 126       11F-1       -0.00003   0.00004  -0.00043   0.00047  -0.00010
 127       11F+2        0.00025  -0.00008  -0.00041   0.00032   0.00069
 128       11F-2        0.00000   0.00000   0.00000   0.00000   0.00000
 129       11F+3        0.00000   0.00000   0.00000   0.00000   0.00000
 130       11F-3        0.00013  -0.00010   0.00056  -0.00054   0.00038
 131 5   H  1S          0.00002   0.00010  -0.00038  -0.00041   0.00003
 132        2S          0.00006   0.00072  -0.00160  -0.00100   0.00008
 133        3S         -0.00039   0.00073  -0.00409  -0.00128  -0.00178
 134        4PX         0.00000   0.00000   0.00000   0.00000   0.00000
 135        4PY         0.00005   0.00002  -0.00035  -0.00042   0.00008
 136        4PZ         0.00005   0.00012  -0.00125  -0.00118   0.00017
 137 6   H  1S         -0.00001  -0.00008  -0.00033  -0.00047  -0.00002
 138        2S         -0.00015  -0.00021  -0.00142  -0.00126  -0.00041
 139        3S         -0.00020   0.00062  -0.00358  -0.00236  -0.00094
 140        4PX         0.00002  -0.00002  -0.00104  -0.00106   0.00007
 141        4PY         0.00003   0.00009   0.00066   0.00071   0.00002
 142        4PZ        -0.00001   0.00005   0.00024   0.00028  -0.00002
 143 7   H  1S         -0.00001  -0.00008  -0.00033  -0.00047  -0.00002
 144        2S         -0.00015  -0.00021  -0.00142  -0.00126  -0.00041
 145        3S         -0.00020   0.00062  -0.00358  -0.00236  -0.00094
 146        4PX        -0.00002   0.00002   0.00104   0.00106  -0.00007
 147        4PY         0.00003   0.00009   0.00066   0.00071   0.00002
 148        4PZ        -0.00001   0.00005   0.00024   0.00028  -0.00002
 149 8   H  1S          0.00002   0.00010   0.00038  -0.00041   0.00003
 150        2S          0.00006   0.00072   0.00160  -0.00100   0.00008
 151        3S         -0.00039   0.00073   0.00409  -0.00128  -0.00178
 152        4PX         0.00000   0.00000   0.00000   0.00000   0.00000
 153        4PY        -0.00005  -0.00002  -0.00035   0.00042  -0.00008
 154        4PZ         0.00005   0.00012   0.00125  -0.00118   0.00017
 155 9   H  1S         -0.00001  -0.00008   0.00033  -0.00047  -0.00002
 156        2S         -0.00015  -0.00021   0.00142  -0.00126  -0.00041
 157        3S         -0.00020   0.00062   0.00358  -0.00236  -0.00094
 158        4PX        -0.00002   0.00002  -0.00104   0.00106  -0.00007
 159        4PY        -0.00003  -0.00009   0.00066  -0.00071  -0.00002
 160        4PZ        -0.00001   0.00005  -0.00024   0.00028  -0.00002
 161 10  H  1S         -0.00001  -0.00008   0.00033  -0.00047  -0.00002
 162        2S         -0.00015  -0.00021   0.00142  -0.00126  -0.00041
 163        3S         -0.00020   0.00062   0.00358  -0.00236  -0.00094
 164        4PX         0.00002  -0.00002   0.00104  -0.00106   0.00007
 165        4PY        -0.00003  -0.00009   0.00066  -0.00071  -0.00002
 166        4PZ        -0.00001   0.00005  -0.00024   0.00028  -0.00002
                           6         7         8         9        10
                        (A1)--O   (B2)--O   (B1)--O   (A1)--O   (A1)--O
     Eigenvalues --    -5.99545  -5.99488  -5.98669  -1.02130  -0.81977
   1 1   O  1S         -0.00014   0.00000   0.00000  -0.08437   0.03964
   2        2S         -0.00030   0.00000   0.00000  -0.19870   0.09393
   3        3S          0.00031   0.00000   0.00000   0.28146  -0.13697
   4        4S          0.00184   0.00000   0.00000   0.39157  -0.19105
   5        5S          0.00273   0.00000   0.00000   0.14094  -0.09860
   6        6PX         0.00000   0.00000   0.00003   0.00000   0.00000
   7        6PY         0.00000   0.00009   0.00000   0.00000   0.00000
   8        6PZ        -0.00051   0.00000   0.00000  -0.09299   0.00113
   9        7PX         0.00000   0.00000   0.00049   0.00000   0.00000
  10        7PY         0.00000   0.00011   0.00000   0.00000   0.00000
  11        7PZ        -0.00150   0.00000   0.00000  -0.08786   0.00710
  12        8PX         0.00000   0.00000  -0.00052   0.00000   0.00000
  13        8PY         0.00000  -0.00114   0.00000   0.00000   0.00000
  14        8PZ        -0.00199   0.00000   0.00000  -0.00832  -0.00220
  15        9D 0        0.00007   0.00000   0.00000   0.00545  -0.00066
  16        9D+1        0.00000   0.00000  -0.00003   0.00000   0.00000
  17        9D-1        0.00000  -0.00009   0.00000   0.00000   0.00000
  18        9D+2       -0.00004   0.00000   0.00000  -0.00022   0.00013
  19        9D-2        0.00000   0.00000   0.00000   0.00000   0.00000
  20       10D 0       -0.00002   0.00000   0.00000   0.01980  -0.00408
  21       10D+1        0.00000   0.00000  -0.00018   0.00000   0.00000
  22       10D-1        0.00000   0.00011   0.00000   0.00000   0.00000
  23       10D+2        0.00014   0.00000   0.00000  -0.00117  -0.00022
  24       10D-2        0.00000   0.00000   0.00000   0.00000   0.00000
  25       11F 0        0.00042   0.00000   0.00000  -0.00420   0.00110
  26       11F+1        0.00000   0.00000  -0.00008   0.00000   0.00000
  27       11F-1        0.00000  -0.00004   0.00000   0.00000   0.00000
  28       11F+2       -0.00002   0.00000   0.00000   0.00032   0.00020
  29       11F-2        0.00000   0.00000   0.00000   0.00000   0.00000
  30       11F+3        0.00000   0.00000  -0.00000   0.00000   0.00000
[...]
         Item               Value     Threshold  Converged?
 Maximum Force            0.000113     0.000450     YES
 RMS     Force            0.000024     0.000300     YES
 Maximum Displacement     0.001320     0.001800     YES
 RMS     Displacement     0.000358     0.001200     YES
 Predicted change in Energy=-5.439081D-08
 Optimization completed.
    -- Stationary point found.
                           ----------------------------
                           !   Optimized Parameters   !
                           ! (Angstroms and Degrees)  !
 --------------------------                            --------------------------
 ! Name  Definition              Value          Derivative Info.                !
 --------------------------------------------------------------------------------
 ! R1    R(1,2)                  1.5026         -DE/DX =   -0.0001              !
 ! R2    R(2,3)                  1.7865         -DE/DX =    0.0                 !
 ! R3    R(2,4)                  1.7865         -DE/DX =    0.0                 !
 ! R4    R(3,5)                  1.0912         -DE/DX =    0.0                 !
 ! R5    R(3,6)                  1.09           -DE/DX =    0.0                 !
 ! R6    R(3,7)                  1.0913         -DE/DX =    0.0                 !
 ! R7    R(4,8)                  1.0912         -DE/DX =    0.0                 !
 ! R8    R(4,9)                  1.0913         -DE/DX =    0.0                 !
 ! R9    R(4,10)                 1.09           -DE/DX =    0.0                 !
 ! A1    A(1,2,3)              106.5981         -DE/DX =    0.0                 !
 ! A2    A(1,2,4)              106.5981         -DE/DX =    0.0                 !
 ! A3    A(3,2,4)               97.5478         -DE/DX =    0.0                 !
 ! A4    A(2,3,5)              108.677          -DE/DX =    0.0                 !
 ! A5    A(2,3,6)              107.118          -DE/DX =    0.0                 !
 ! A6    A(2,3,7)              109.1142         -DE/DX =    0.0                 !
 ! A7    A(5,3,6)              109.9351         -DE/DX =    0.0                 !
 ! A8    A(5,3,7)              111.0809         -DE/DX =    0.0                 !
 ! A9    A(6,3,7)              110.8051         -DE/DX =    0.0                 !
 ! A10   A(2,4,8)              108.677          -DE/DX =    0.0                 !
 ! A11   A(2,4,9)              109.1142         -DE/DX =    0.0                 !
 ! A12   A(2,4,10)             107.118          -DE/DX =    0.0                 !
 ! A13   A(8,4,9)              111.0809         -DE/DX =    0.0                 !
 ! A14   A(8,4,10)             109.9351         -DE/DX =    0.0                 !
 ! A15   A(9,4,10)             110.8051         -DE/DX =    0.0                 !
 ! D1    D(1,2,3,5)            174.3108         -DE/DX =    0.0                 !
 ! D2    D(1,2,3,6)            -66.9581         -DE/DX =    0.0                 !
 ! D3    D(1,2,3,7)             53.0468         -DE/DX =    0.0                 !
 ! D4    D(4,2,3,5)             64.4232         -DE/DX =    0.0                 !
 ! D5    D(4,2,3,6)           -176.8457         -DE/DX =    0.0                 !
 ! D6    D(4,2,3,7)            -56.8408         -DE/DX =    0.0                 !
 ! D7    D(1,2,4,8)           -174.3108         -DE/DX =    0.0                 !
 ! D8    D(1,2,4,9)            -53.0468         -DE/DX =    0.0                 !
 ! D9    D(1,2,4,10)            66.9581         -DE/DX =    0.0                 !
 ! D10   D(3,2,4,8)            -64.4232         -DE/DX =    0.0                 !
 ! D11   D(3,2,4,9)             56.8408         -DE/DX =    0.0                 !
 ! D12   D(3,2,4,10)           176.8457         -DE/DX =    0.0                 !
 --------------------------------------------------------------------------------
 GradGradGradGradGradGradGradGradGradGradGradGradGradGradGradGradGradGrad

 Leave Link  103 at Tue Oct 28 16:33:51 2025, MaxMem=  1048576000 cpu:               0.1 elap:               0.1
 (Enter /home/pcmt/gaussian/g16.C.01/g16/l9999.exe)

 ----------------------------------------------------------------------

 Electric dipole moment (input orientation):
 (Debye = 10**-18 statcoulomb cm , SI units = C m)
                  (au)            (Debye)         (10**-30 SI)
   Tot        0.225447D+01      0.573030D+01      0.191142D+02
   x          0.000000D+00      0.000000D+00      0.000000D+00
   y          0.210516D+00      0.535078D+00      0.178483D+01
   z          0.224462D+01      0.570526D+01      0.190307D+02

 Dipole polarizability, Alpha (input orientation).
 (esu units = cm**3 , SI units = C**2 m**2 J**-1)
 Alpha(0;0):
               (au)            (10**-24 esu)      (10**-40 SI)
   iso        0.642033D+02      0.951394D+01      0.105857D+02
   aniso      0.138952D+02      0.205905D+01      0.229100D+01
   xx         0.687224D+02      0.101836D+02      0.113308D+02
   yx         0.000000D+00      0.000000D+00      0.000000D+00
   yy         0.552302D+02      0.818427D+01      0.910623D+01
   zx         0.000000D+00      0.000000D+00      0.000000D+00
   zy         0.199256D+01      0.295266D+00      0.328528D+00
   zz         0.686572D+02      0.101740D+02      0.113200D+02

 First dipole hyperpolarizability, Beta (input orientation).
 ||, _|_  parallel and perpendicular components, (z) with respect to z axis,
 vector components x,y,z.  Values do not include the 1/n! factor of 1/2.
 (esu units = statvolt**-1 cm**4 , SI units = C**3 m**3 J**-2)
 Beta(0;0,0):
               (au)            (10**-30 esu)      (10**-50 SI)
   || (z)     0.208786D+03      0.180375D+01      0.669445D+00
   _|_(z)     0.695955D+02      0.601251D+00      0.223148D+00
   x          0.000000D+00      0.000000D+00      0.000000D+00
   y          0.127549D+03      0.110192D+01      0.408969D+00
   z          0.104393D+04      0.901876D+01      0.334722D+01
   ||         0.210339D+03      0.181717D+01      0.674423D+00
   xxx        0.000000D+00      0.000000D+00      0.000000D+00
   xxy       -0.141094D+02     -0.121894D+00     -0.452398D-01
   yxy        0.000000D+00      0.000000D+00      0.000000D+00
   yyy        0.974116D+02      0.841560D+00      0.312337D+00
   xxz        0.359447D+02      0.310534D+00      0.115252D+00
   yxz        0.000000D+00      0.000000D+00      0.000000D+00
   yyz        0.534608D+02      0.461860D+00      0.171415D+00
   zxz        0.000000D+00      0.000000D+00      0.000000D+00
   zyz       -0.407859D+02     -0.352358D+00     -0.130774D+00
   zzz        0.258572D+03      0.223386D+01      0.829075D+00

 ----------------------------------------------------------------------

 Dipole orientation:
     8          0.00000000         -0.52629992          0.20776408
    16          0.00000000         -1.76522593          2.76266365
     6          2.53914264         -0.38190885          4.50524602
     6         -2.53914263         -0.38190885          4.50524602
     1          2.47999672         -1.09700993          6.43837141
     1          4.29055859         -0.96781091          3.59295555
     1          2.34463600          1.67087619          4.46741873
     1         -2.47999671         -1.09700993          6.43837141
     1         -2.34463600          1.67087619          4.46741873
     1         -4.29055858         -0.96781091          3.59295555

 Electric dipole moment (dipole orientation):
 (Debye = 10**-18 statcoulomb cm , SI units = C m)
                  (au)            (Debye)         (10**-30 SI)
   Tot        0.225447D+01      0.573030D+01      0.191142D+02
   x          0.000000D+00      0.000000D+00      0.000000D+00
   y          0.000000D+00      0.000000D+00      0.000000D+00
   z          0.225447D+01      0.573030D+01      0.191142D+02

 Dipole polarizability, Alpha (dipole orientation).
 (esu units = cm**3 , SI units = C**2 m**2 J**-1)
 Alpha(0;0):
               (au)            (10**-24 esu)      (10**-40 SI)
   iso        0.642033D+02      0.951394D+01      0.105857D+02
   aniso      0.138952D+02      0.205905D+01      0.229100D+01
   xx         0.687224D+02      0.101836D+02      0.113308D+02
   yx         0.000000D+00      0.000000D+00      0.000000D+00
   yy         0.549768D+02      0.814672D+01      0.906445D+01
   zx         0.000000D+00      0.000000D+00      0.000000D+00
   zy         0.709511D+00      0.105139D+00      0.116983D+00
   zz         0.689107D+02      0.102115D+02      0.113618D+02

 First dipole hyperpolarizability, Beta (dipole orientation).
 ||, _|_  parallel and perpendicular components, (z) with respect to z axis,
 vector components x,y,z.  Values do not include the 1/n! factor of 1/2.
 (esu units = statvolt**-1 cm**4 , SI units = C**3 m**3 J**-2)
 Beta(0;0,0):
               (au)            (10**-30 esu)      (10**-50 SI)
   || (z)     0.210256D+03      0.181645D+01      0.674158D+00
   _|_(z)     0.700854D+02      0.605483D+00      0.224719D+00
   x          0.000000D+00      0.000000D+00      0.000000D+00
   y          0.295126D+02      0.254966D+00      0.946279D-01
   z          0.105128D+04      0.908225D+01      0.337079D+01
   ||         0.210339D+03      0.181717D+01      0.674423D+00
   xxx        0.000000D+00      0.000000D+00      0.000000D+00
   xxy       -0.174041D+02     -0.150358D+00     -0.558040D-01
   yxy        0.000000D+00      0.000000D+00      0.000000D+00
   yyy        0.800222D+02      0.691329D+00      0.256580D+00
   xxz        0.344701D+02      0.297795D+00      0.110524D+00
   yxz        0.000000D+00      0.000000D+00      0.000000D+00
   yyz        0.706136D+02      0.610047D+00      0.226413D+00
   zxz        0.000000D+00      0.000000D+00      0.000000D+00
   zyz       -0.527805D+02     -0.455982D+00     -0.169233D+00
   zzz        0.245343D+03      0.211958D+01      0.786659D+00

 ----------------------------------------------------------------------

 Test job not archived.
 1\1\GINC-U-0-11\Freq\RPBE1PBE\Gen\C2H6O1S1\ROOT\28-Oct-2025\0\\#P Geom
 =AllCheck Guess=TCheck SCRF=Check Test GenChk RPBE1PBE/ChkBas Freq\\DM
 SO.pbe0-d3bj-cosmo.optg-freq.chk\\0,1\O,0.0000000012,-0.2670228392,0.1
 354696983\S,0.,-0.7935245656,1.5427762489\C,1.3436564157,0.0214031708,
 2.3925283413\C,-1.3436564173,0.0214031704,2.392528339\H,1.3123577425,-
 0.2598371732,3.4463599964\H,2.270465825,-0.3323671909,1.9408254609\H,1
 .240727938,1.1010748937,2.2711642336\H,-1.3123577459,-0.2598371735,3.4
 463599942\H,-1.2407279397,1.1010748933,2.2711642315\H,-2.2704658257,-0
 .3323671915,1.940825457\\Version=ES64L-G16RevC.01\State=1-A'\HF=-552.9
 916412\RMSD=1.628e-09\RMSF=3.018e-05\ZeroPoint=0.0795063\Thermal=0.085
 0093\ETot=-552.9066318\HTot=-552.9056877\GTot=-552.9402381\Dipole=0.,0
 .2105159,2.244623\DipoleDeriv=-0.7295043,0.,0.,0.,-0.7267253,0.5373227
 ,0.,-0.0409878,-1.7660759,0.9905192,0.,0.,0.,0.708322,-0.1451014,0.,0.
 0882451,1.8982041,-0.2099571,-0.0140116,-0.056882,-0.1607794,-0.125771
 9,-0.1550836,-0.0664387,-0.0390235,-0.2221549,-0.2099571,0.0140116,0.0
 56882,0.1607794,-0.1257719,-0.1550836,0.0664387,-0.0390235,-0.2221549,
 0.0800053,-0.027216,-0.0137932,-0.0510074,0.1005953,0.0216484,-0.01772
 32,0.0336626,-0.0279582,-0.0299525,0.0270687,0.0323839,-0.0015279,0.09
 40142,-0.0466418,0.0369925,-0.0374105,0.089498,0.0293969,0.0096998,-0.
 068397,-0.0407303,-0.059636,-0.0160336,-0.0547545,0.0191428,0.094551,0
 .0800053,0.027216,0.0137932,0.0510074,0.1005953,0.0216484,0.0177232,0.
 0336626,-0.0279582,0.0293969,-0.0096998,0.068397,0.0407303,-0.059636,-
 0.0160336,0.0547545,0.0191428,0.094551,-0.0299525,-0.0270687,-0.032383
 9,0.0015279,0.0940142,-0.0466418,-0.0369925,-0.0374105,0.089498\Polar=
 68.7224007,0.,55.230204,0.,1.9925565,68.6572353\PolarDeriv=0.,0.979064
 5,0.,-6.000551,0.,0.,-0.2925753,0.,0.4052304,0.,-5.9862326,3.5694376,0
 .9610526,-0.0000003,2.8676955,0.0000001,2.127629,-18.2751014,0.,-6.723
 227,0.,-5.0428821,0.,-0.0000002,-6.0871135,0.,-5.9937626,0.,-0.2599237
 ,-9.1235586,-8.0810901,0.0000003,-3.5134753,-0.0000002,-8.8615031,3.54
 34172,0.3470827,5.0292675,0.964544,7.6400704,1.4172291,3.1240547,6.286
 1828,-0.218058,-9.5308209,1.4486722,0.8772841,5.2180589,8.4820202,0.73
 32697,1.3603439,1.6935004,4.135893,-5.8367381,-0.3470827,5.0292675,-0.
 964544,7.6400704,-1.4172291,-3.1240547,6.2861828,0.218058,-9.5308209,-
 1.4486722,0.8772841,5.2180589,8.4820202,-0.7332697,1.3603439,-1.693500
 3,4.135893,-5.8367381,0.7038268,-1.0656419,-0.4913282,1.6099552,-0.053
 0067,-0.0218675,-1.8109476,0.3326714,-0.6214976,-0.6482996,2.354604,-2
 .7660928,1.9643538,-0.1018009,1.8828148,2.7445562,-1.4561336,13.774504
 7,12.5740493,-2.356438,1.5435894,-2.6885067,0.0259114,1.3969308,-4.026
 4147,2.3344961,-0.8028158,-0.0330839,-0.9424894,-1.4445777,-5.1335396,
 0.3603205,-1.2734884,2.5629316,-1.1099301,-1.2578013,-0.0119897,1.2648
 936,-1.2280565,-1.0398023,-0.4249939,-0.6934034,2.7410237,2.671306,13.
 7494002,0.6181536,0.8336794,1.7696721,-1.7528155,-0.4748149,-1.6467804
 ,0.2970528,1.7971078,0.6858768,-0.7038268,-1.0656419,0.4913282,1.60995
 52,0.0530067,0.0218675,-1.8109476,-0.3326715,-0.6214976,0.6482996,2.35
 4604,-2.7660928,1.9643538,0.1018009,1.8828148,-2.7445562,-1.4561336,13
 .7745047,0.0119898,1.2648936,1.2280565,-1.0398023,0.4249939,0.6934034,
 2.7410237,-2.671306,13.7494002,-0.6181536,0.8336794,1.7696721,-1.75281
 55,0.4748149,-1.6467804,-0.2970528,1.7971078,0.6858768,-12.5740492,-2.
 356438,-1.5435894,-2.6885067,-0.0259114,-1.3969308,-4.0264147,-2.33449
 61,-0.8028158,0.0330839,-0.9424894,-1.4445777,-5.1335397,-0.3603205,-1
 .2734884,-2.5629316,-1.1099301,-1.2578013\HyperPolar=0.,-14.1093829,0.
 ,97.4116017,35.9446731,0.,53.4608116,-0.0000002,-40.7858512,258.571919
 5\Quadrupole=3.6499174,0.0044192,-3.6543366,0.,0.,0.6788399\PG=CS [SG(
 O1S1),X(C2H6)]\NImag=0\\0.04237235,0.,0.07889713,0.,-0.12915724,0.4262
 5512,-0.05383637,0.,0.,0.30375546,0.,-0.11544223,0.11703880,0.,0.32444
 438,0.,0.15448777,-0.37347582,0.,-0.08252830,0.50859905,0.00522368,-0.
 00253024,0.00408306,-0.10073027,-0.02389642,-0.02963676,0.45393676,0.0
 1458768,0.01544059,0.00983145,-0.07069029,-0.09415670,-0.03442337,-0.0
 6904256,0.52771703,-0.02458801,-0.01313341,-0.02645655,-0.01824237,-0.
 00954830,-0.06049899,-0.07580319,-0.04482017,0.52529802,0.00522368,0.0
 0253024,-0.00408306,-0.10073027,0.02389642,0.02963676,-0.02503256,0.01
 389332,0.00986358,0.45393676,-0.01458768,0.01544059,0.00983144,0.07069
 029,-0.09415670,-0.03442337,-0.01389332,0.00564157,0.00494915,0.069042
 56,0.52771703,0.02458801,-0.01313341,-0.02645655,0.01824237,-0.0095483
 0,-0.06049899,-0.00986358,0.00494915,0.00937460,0.07580319,-0.04482017
 ,0.52529802,-0.00490647,-0.00335720,-0.00643205,0.00301594,0.00882230,
 -0.01673615,-0.04181931,-0.00193762,0.00749557,0.00030149,0.00036145,0
 .00159630,0.04310122,-0.00383210,-0.00064877,-0.00348910,0.00495549,0.
 00279308,-0.00967761,-0.00316424,-0.06243802,0.06969378,0.00041587,0.0
 0024944,0.00049315,0.00265840,0.06215372,-0.00268754,-0.00190244,-0.00
 230334,0.00205645,0.00411032,-0.01033246,0.00931792,0.07168856,-0.3066
 5875,0.00088412,0.00047487,-0.00010414,-0.00873627,-0.07575568,0.32745
 979,0.00246388,0.00046550,-0.00052143,-0.01841959,0.00622451,0.0094993
 2,-0.24636458,0.08076678,0.10165500,-0.00428019,-0.00337823,-0.0029307
 7,0.00196424,-0.00059438,-0.00127410,0.26501726,0.00122622,-0.00002171
 ,0.00065076,-0.01136792,0.00329768,0.00770890,0.07914925,-0.07533394,-
 0.03897605,-0.00305221,-0.00149993,-0.00224920,-0.00710017,0.00150340,
 0.00289063,-0.08326431,0.07722633,0.00112423,0.00003491,0.00102627,-0.
 01240200,0.00499816,0.00385403,0.10138232,-0.03755165,-0.09179828,-0.0
 0341297,-0.00181337,-0.00185819,0.02537490,-0.00976315,-0.00906202,-0.
 10731125,0.04239466,0.09588589,0.00295091,0.00501419,0.00145223,-0.008
 82563,-0.02874497,-0.00021431,-0.04370921,0.02853501,-0.00144903,0.002
 47416,-0.00087090,0.00026603,-0.00085782,-0.00026585,0.00046101,-0.000
 14429,0.02527486,-0.00406781,0.04791298,0.00165487,0.00350244,-0.00093
 389,-0.00432523,-0.01643514,0.00041234,0.03205451,-0.31734570,0.033370
 08,0.00131330,0.00172567,0.00022099,0.00060651,-0.00373017,-0.00108965
 ,-0.00076061,-0.00636875,0.00151718,-0.03001878,0.33771088,0.00215912,
 0.00233568,0.00134397,-0.00500248,-0.01681544,-0.00058420,-0.00037901,
 0.03106942,-0.04683773,0.00162962,0.00059511,-0.00045999,-0.00232788,0
 .02868273,0.00005761,0.00008504,-0.01254123,0.00100415,0.00362111,-0.0
 3377089,0.04536707,-0.00490647,0.00335720,0.00643205,0.00301594,-0.008
 82230,0.01673615,0.00030149,-0.00036145,-0.00159630,-0.04181931,0.0019
 3762,-0.00749557,-0.00107127,-0.00018142,0.00007068,0.00036160,0.00027
 977,0.00006985,-0.00008963,-0.00004467,0.00009389,0.04310122,0.0038321
 0,-0.00064877,-0.00348910,-0.00495549,0.00279308,-0.00967761,-0.000415
 87,0.00024944,0.00049315,0.00316424,-0.06243802,0.06969378,0.00018142,
 0.00022888,-0.00011957,-0.00007884,-0.00018332,-0.00008892,0.00007060,
 0.00007175,0.00002438,-0.00265840,0.06215372,0.00268754,-0.00190244,-0
 .00230334,-0.00205645,0.00411032,-0.01033246,-0.00088412,0.00047487,-0
 .00010414,-0.00931792,0.07168856,-0.30665875,-0.00007068,-0.00011957,0
 .00069440,-0.00001054,-0.00028037,0.00023623,0.00010280,-0.00001667,0.
 00001267,0.00873627,-0.07575568,0.32745979,0.00295091,-0.00501419,-0.0
 0145223,-0.00882563,0.02874497,0.00021431,0.00247416,0.00087090,-0.000
 26603,-0.04370921,-0.02853501,0.00144903,-0.00008963,-0.00007060,-0.00
 010280,0.00042819,-0.00018359,0.00022464,-0.00013967,-0.00082224,-0.00
 005261,-0.00085782,0.00026585,-0.00046101,0.04791298,-0.00165487,0.003
 50244,-0.00093389,0.00432523,-0.01643514,0.00041234,-0.00131330,0.0017
 2567,0.00022099,-0.03205451,-0.31734570,0.03337008,0.00004467,0.000071
 75,-0.00001667,-0.00034234,0.00025287,-0.00020404,0.00082224,0.0006161
 5,0.00049455,-0.00060651,-0.00373017,-0.00108965,0.03001878,0.33771088
 ,-0.00215912,0.00233568,0.00134397,0.00500248,-0.01681544,-0.00058420,
 -0.00162962,0.00059511,-0.00045999,0.00037901,0.03106942,-0.04683773,-
 0.00009389,0.00002438,0.00001267,-0.00017319,-0.00007430,-0.00018984,0
 .00005261,0.00049455,0.00028630,0.00232788,0.02868273,0.00005761,-0.00
 362111,-0.03377089,0.04536707,0.00246388,-0.00046550,0.00052143,-0.018
 41959,-0.00622451,-0.00949932,-0.00428019,0.00337823,0.00293077,-0.246
 36458,-0.08076678,-0.10165500,0.00036160,0.00007884,0.00001054,-0.0010
 2652,-0.00096191,-0.00098192,0.00042819,0.00034234,0.00017319,0.001964
 24,0.00059438,0.00127410,-0.00014429,0.00076061,-0.00008504,0.26501726
 ,-0.00122622,-0.00002171,0.00065076,0.01136792,0.00329768,0.00770890,0
 .00305221,-0.00149993,-0.00224920,-0.07914925,-0.07533394,-0.03897605,
 -0.00027977,-0.00018332,-0.00028037,0.00096191,0.00112737,0.00047621,0
 .00018359,0.00025287,-0.00007430,0.00710017,0.00150340,0.00289063,-0.0
 2527486,-0.00636875,-0.01254123,0.08326431,0.07722633,-0.00112423,0.00
 003491,0.00102627,0.01240200,0.00499817,0.00385403,0.00341297,-0.00181
 337,-0.00185819,-0.10138232,-0.03755165,-0.09179828,-0.00006985,-0.000
 08892,0.00023623,0.00098192,0.00047621,0.00090176,-0.00022464,-0.00020
 404,-0.00018984,-0.02537490,-0.00976315,-0.00906202,0.00406781,0.00151
 718,0.00100415,0.10731125,0.04239466,0.09588589\\0.,0.00003327,-0.0001
 0113,0.,-0.00005674,0.00006476,0.00002517,0.00003095,0.00003283,-0.000
 02517,0.00003095,0.00003283,0.00001391,0.00000767,0.00000127,0.0000106
 8,-0.00000829,0.00000736,-0.00001559,-0.00001859,-0.00002327,-0.000013
 91,0.00000767,0.00000127,0.00001559,-0.00001859,-0.00002327,-0.0000106
 8,-0.00000829,0.00000736\\\@


 NO SCIENCE HAS EVER MADE MORE RAPID PROGRESS IN A
 SHORTER TIME THAN CHEMISTRY.
   -- MARTIN HEINRICH KLOPROTH, 1791
 (FIRST PROFESSOR OF CHEMISTRY AT THE UNIVERSITY OF BERLIN)
 Job cpu time:       0 days  0 hours 10 minutes 41.2 seconds.
 Elapsed time:       0 days  0 hours  2 minutes 42.5 seconds.
 File lengths (MBytes):  RWF=     32 Int=      0 D2E=      0 Chk=      6 Scr=      1
 Normal termination of Gaussian 16 at Tue Oct 28 16:33:51 2025.
